q51 192.168.0
Q-Chem Developer Version! Running on 192.168.0.*
                  Welcome to Q-Chem
     A Quantum Leap Into The Future Of Chemistry


 Q-Chem 5.0, Q-Chem, Inc., Pleasanton, CA (2017)

 Yihan Shao,  Zhengting Gan,  E. Epifanovsky,  A. T. B. Gilbert,  M. Wormit,  
 J. Kussmann,  A. W. Lange,  A. Behn,  Jia Deng,  Xintian Feng,  D. Ghosh,  
 M. Goldey,  P. R. Horn,  L. D. Jacobson,  I. Kaliman,  T. Kus,  A. Landau,  
 Jie Liu,  E. I. Proynov,  R. M. Richard,  R. P. Steele,  E. J. Sundstrom,  
 H. L. Woodcock III,  P. M. Zimmerman,  D. Zuev,  B. Albrecht,  E. Alguire,  
 S. A. Baeppler,  Z. Benda,  Y. A. Bernard,  E. J. Berquist,  K. B. Bravaya,  
 D. Casanova,  Chun-Min Chang,  Yunqing Chen,  A. Chien,  K. D. Closser,  
 M. P. Coons,  S. Dasgupta,  M. Diedenhofen,  Hainam Do,  R. G. Edgar,  
 Po-Tung Fang,  S. Fatehi,  Qingguo Feng,  Qinghui Ge,  A. Ghysels,  
 J. Gomes,  J. Gonthier,  A. Gunina,  M. W. D. Hanson-Heine,  
 P. H. P. Harbach,  A. W. Hauser,  J. E. Herr,  E. G. Hohenstein,  
 Z. C. Holden,  Kerwin Hui,  T.-C. Jagau,  Hyunjun Ji,  B. Kaduk,  
 K. Khistyaev,  Jaehoon Kim,  P. Klunzinger,  K. Koh,  D. Kosenkov,  
 T. Kowalczyk,  C. M. Krauter,  A. Kunitsa,  Ka Un Lao,  A. Laurent,  
 K. V. Lawler,  Joonho Lee,  D. Lefrancois,  S. Lehtola,  D. S. Levine,  
 Yi-Pei Li,  You-Sheng Lin,  Fenglai Liu,  E. Livshits,  A. Luenser,  
 P. Manohar,  E. Mansoor,  S. F. Manzer,  Shan-Ping Mao,  Yuezhi Mao,  
 N. Mardirossian,  A. V. Marenich,  L. A. Martinez-Martinez,  S. A. Maurer,  
 N. J. Mayhall,  S. C. McKenzie,  J.-M. Mewes,  A. F. Morrison,  K. Nanda,  
 T. S. Nguyen-Beck,  R. Olivares-Amaya,  J. A. Parkhill,  T. M. Perrine,  
 F. Plasser,  S. Prager,  A. Prociuk,  D. R. Rehn,  F. Rob,  M. Schneider,  
 N. Sergueev,  S. M. Sharada,  S. Sharma,  D. W. Small,  T. Stauch,  
 T. Stein,  Yu-Chuan Su,  A. J. W. Thom,  T. Tsuchimochi,  L. Vogt,  
 O. Vydrov,  M. A. Watson,  J. Wenzel,  M. de Wergifosse,  T. A. Wesolowski,  
 A. White,  J. Witte,  A. Yamada,  Jun Yang,  K. Yao,  S. Yeganeh,  
 S. R. Yost,  Zhi-Qiang You,  A. Zech,  Igor Ying Zhang,  Xing Zhang,  
 Yan Zhao,  Ying Zhu,  B. R. Brooks,  G. K. L. Chan,  C. J. Cramer,  
 M. S. Gordon,  W. J. Hehre,  A. Klamt,  M. W. Schmidt,  C. D. Sherrill,  
 D. G. Truhlar,  A. Aspuru-Guzik,  R. Baer,  A. T. Bell,  N. A. Besley,  
 Jeng-Da Chai,  A. Dreuw,  B. D. Dunietz,  T. R. Furlani,  Chao-Ping Hsu,  
 Yousung Jung,  Jing Kong,  D. S. Lambrecht,  WanZhen Liang,  C. Ochsenfeld,  
 V. A. Rassolov,  L. V. Slipchenko,  J. E. Subotnik,  T. Van Voorhis,  
 J. M. Herbert,  A. I. Krylov,  P. M. W. Gill,  M. Head-Gordon

 Contributors to earlier versions of Q-Chem not listed above: 
 R. D. Adamson,  B. Austin,  J. Baker,  G. J. O. Beran,  K. Brandhorst,  
 S. T. Brown,  E. F. C. Byrd,  A. K. Chakraborty,  C.-L. Cheng,  
 Siu Hung Chien,  D. M. Chipman,  D. L. Crittenden,  H. Dachsel,  
 R. A. DiStasio Jr.,  R. J. Doerksen,  A. D. Dutoi,  L. Fusti-Molnar,  
 W. A. Goddard III,  A. Golubeva-Zadorozhnaya,  S. R. Gwaltney,  G. Hawkins,  
 A. Heyden,  S. Hirata,  G. Kedziora,  F. J. Keil,  C. Kelley,  Jihan Kim,  
 R. A. King,  R. Z. Khaliullin,  P. P. Korambath,  W. Kurlancheek,  
 A. M. Lee,  M. S. Lee,  S. V. Levchenko,  Ching Yeh Lin,  D. Liotard,  
 R. C. Lochan,  I. Lotan,  P. E. Maslen,  N. Nair,  D. P. O'Neill,  
 D. Neuhauser,  E. Neuscamman,  C. M. Oana,  R. Olson,  B. Peters,  
 R. Peverati,  P. A. Pieniazek,  Y. M. Rhee,  J. Ritchie,  M. A. Rohrdanz,  
 E. Rosta,  N. J. Russ,  H. F. Schaefer III,  N. E. Schultz,  N. Shenvi,  
 A. C. Simmonett,  A. Sodt,  D. Stuck,  K. S. Thanthiriwatte,  V. Vanovschi,  
 Tao Wang,  A. Warshel,  C. F. Williams,  Q. Wu,  X. Xu,  W. Zhang

 Please cite Q-Chem as follows:
 Y. Shao et al., Mol. Phys. 113, 184-215 (2015)
 DOI: 10.1080/00268976.2014.952696

 Q-Chem 5.0.0 for Intel X86 EM64T Linux

 Parts of Q-Chem use Armadillo 5.200.1 (Boston Tea Smuggler).
 http://arma.sourceforge.net/

 Q-Chem begins on Thu Jun  3 00:43:39 2021  

Host: q51
0

     Scratch files written to /scratch/junyiwang/qchem/qchem305001//

Checking the input file for inconsistencies... 	...done.

--------------------------------------------------------------
User input:
--------------------------------------------------------------
$comment
  Pair index in OpenMM: 2 and 3
$end

$molecule
  0  1
--
  0  1
C   32.0978022   18.6255181    3.2534775
C   31.6759276   17.6382661    4.0793228
H   31.4193344   19.2124259    2.7138042
H   33.1843901   18.7973762    3.0653360
H   32.3645806   17.0744908    4.6721673
H   30.6172776   17.4014461    4.1670075
--
  0  1
C   25.1950312    5.4835099   23.2523656
C   25.3026819    5.7128525   21.9405818
H   26.0881257    5.3210348   23.8717365
H   24.2439175    5.4128242   23.7472582
H   24.4005251    5.8669716   21.3527584
H   26.2846470    5.7342005   21.4722753
$end

$rem
	JOBTYPE      SP
	METHOD     	 BLYP			! Set the exchange-correlation functions
	BASIS        DZ*
	LRC_DFT		 TRUE			! Control the application of long-range-corrected DFT
	OMEGA		 410			! Set the range-separation parameter
	!GUI  =  2
	MAX_SCF_CYCLES	 200
	SCF_PRINT_FRGM   TRUE		! for printing out SCF results of each fragments
	SCF_FINAL_PRINT  2
	SYM_IGNORE       TRUE		! Necessary rem key for DC calculations.
	SCF_GUESS        FRAGMO		! Use MOs of each fragments.
	STS_DC               FOCK	! Use Frontier Molecular Orbital (FMO) approach
	SCF_CONVERGENCE      5		! 5 For SP calculations/8 For OPT, vibrational analysis and SSG calculation; see p. 1083 in Q-Chem Manual 5.0
	STS_TRANS_DONOR      2-2
	STS_TRANS_ACCEPTOR   2-2
$end
--------------------------------------------------------------
 ----------------------------------------------------------------
             Standard Nuclear Orientation (Angstroms)
    I     Atom           X                Y                Z
 ----------------------------------------------------------------
    1      C      32.0978022000    18.6255181000     3.2534775000
    2      C      31.6759276000    17.6382661000     4.0793228000
    3      H      31.4193344000    19.2124259000     2.7138042000
    4      H      33.1843901000    18.7973762000     3.0653360000
    5      H      32.3645806000    17.0744908000     4.6721673000
    6      H      30.6172776000    17.4014461000     4.1670075000
    7      C      25.1950312000     5.4835099000    23.2523656000
    8      C      25.3026819000     5.7128525000    21.9405818000
    9      H      26.0881257000     5.3210348000    23.8717365000
   10      H      24.2439175000     5.4128242000    23.7472582000
   11      H      24.4005251000     5.8669716000    21.3527584000
   12      H      26.2846470000     5.7342005000    21.4722753000
 ----------------------------------------------------------------
 Nuclear Repulsion Energy =    72.1904811683 hartrees
 There are       16 alpha and       16 beta electrons
 Requested basis set is DZ(d)
 There are 44 shells and 76 basis functions

 Total QAlloc Memory Limit   2000 MB
 Mega-Array Size        61 MB
 MEM_STATIC part        62 MB

                       Distance Matrix (Angstroms)
             C (  1)   C (  2)   H (  3)   H (  4)   H (  5)   H (  6)
   C (  2)  1.354498
   H (  3)  1.046913  2.099633
   H (  4)  1.116067  2.155728  1.846960
   H (  5)  2.118853  1.069369  3.049499  2.494460
   H (  6)  2.127168  1.088353  2.456571  3.122878  1.848014
   C (  7) 24.906147 23.608170 25.476609 25.467726 23.042939 23.144953
   C (  8) 23.709038 22.402195 24.275932 24.281701 21.843887 21.926424
   H (  9) 25.263375 23.972429 25.866013 25.785171 23.370089 23.552620
   H ( 10) 25.617452 24.321264 26.159545 26.207255 23.786524 23.827148
   H ( 11) 23.443817 22.132926 23.974475 24.057877 21.616586 21.611158
   H ( 12) 23.063032 21.755171 23.662371 23.602297 21.161555 21.315924
             C (  7)   C (  8)   H (  9)   H ( 10)   H ( 11)
   C (  8)  1.336025
   H (  9)  1.098925  2.121274
   H ( 10)  1.074492  2.115438  1.850682
   H ( 11)  2.094467  1.087739  3.080794  2.442213
   H ( 12)  2.102101  1.088128  2.442691  3.073013  1.892572
 
 A cutoff of  1.0D-08 yielded    506 shell pairs
 There are      1546 function pairs (      1724 Cartesian)
 Smallest overlap matrix eigenvalue = 4.25E-03

 Scale SEOQF with 1.000000e-03/1.000000e-03/1.000000e-03

 Standard Electronic Orientation quadrupole field applied
 Nucleus-field energy     =     0.0000000046 hartrees
 Guess MOs from converged MOs on fragments

QCSCRATCH   is /scratch/junyiwang/qchem
QCFILEPREF  is /scratch/junyiwang/qchem/qchem305001/

-----------------------------------------------------------------
 SCF on fragment 1 out of 2 in state 1
-----------------------------------------------------------------

/opt/qchem/cvs/bin/xr.csh /scratch/junyiwang/qchem/qchem305001/Frg1s1.input  stdout  Frg1s1
/opt/qchem/cvs/bin/xr.csh /scratch/junyiwang/qchem/qchem305001/Frg1s1.input stdout Frg1s1
QCSCRATCH is /scratch/junyiwang/qchem/qchem305001/Frg1s1
QCFILEPREF is /scratch/junyiwang/qchem/qchem305001/Frg1s1/
-- Serial fragment SCF job
qcprog.exe.5.release /scratch/junyiwang/qchem/qchem305001/Frg1s1.input /scratch/junyiwang/qchem/qchem305001/Frg1s1/
q51 192.168.0
Q-Chem Developer Version! Running on 192.168.0.*
                  Welcome to Q-Chem
     A Quantum Leap Into The Future Of Chemistry


 Q-Chem 5.0, Q-Chem, Inc., Pleasanton, CA (2017)

 Yihan Shao,  Zhengting Gan,  E. Epifanovsky,  A. T. B. Gilbert,  M. Wormit,  
 J. Kussmann,  A. W. Lange,  A. Behn,  Jia Deng,  Xintian Feng,  D. Ghosh,  
 M. Goldey,  P. R. Horn,  L. D. Jacobson,  I. Kaliman,  T. Kus,  A. Landau,  
 Jie Liu,  E. I. Proynov,  R. M. Richard,  R. P. Steele,  E. J. Sundstrom,  
 H. L. Woodcock III,  P. M. Zimmerman,  D. Zuev,  B. Albrecht,  E. Alguire,  
 S. A. Baeppler,  Z. Benda,  Y. A. Bernard,  E. J. Berquist,  K. B. Bravaya,  
 D. Casanova,  Chun-Min Chang,  Yunqing Chen,  A. Chien,  K. D. Closser,  
 M. P. Coons,  S. Dasgupta,  M. Diedenhofen,  Hainam Do,  R. G. Edgar,  
 Po-Tung Fang,  S. Fatehi,  Qingguo Feng,  Qinghui Ge,  A. Ghysels,  
 J. Gomes,  J. Gonthier,  A. Gunina,  M. W. D. Hanson-Heine,  
 P. H. P. Harbach,  A. W. Hauser,  J. E. Herr,  E. G. Hohenstein,  
 Z. C. Holden,  Kerwin Hui,  T.-C. Jagau,  Hyunjun Ji,  B. Kaduk,  
 K. Khistyaev,  Jaehoon Kim,  P. Klunzinger,  K. Koh,  D. Kosenkov,  
 T. Kowalczyk,  C. M. Krauter,  A. Kunitsa,  Ka Un Lao,  A. Laurent,  
 K. V. Lawler,  Joonho Lee,  D. Lefrancois,  S. Lehtola,  D. S. Levine,  
 Yi-Pei Li,  You-Sheng Lin,  Fenglai Liu,  E. Livshits,  A. Luenser,  
 P. Manohar,  E. Mansoor,  S. F. Manzer,  Shan-Ping Mao,  Yuezhi Mao,  
 N. Mardirossian,  A. V. Marenich,  L. A. Martinez-Martinez,  S. A. Maurer,  
 N. J. Mayhall,  S. C. McKenzie,  J.-M. Mewes,  A. F. Morrison,  K. Nanda,  
 T. S. Nguyen-Beck,  R. Olivares-Amaya,  J. A. Parkhill,  T. M. Perrine,  
 F. Plasser,  S. Prager,  A. Prociuk,  D. R. Rehn,  F. Rob,  M. Schneider,  
 N. Sergueev,  S. M. Sharada,  S. Sharma,  D. W. Small,  T. Stauch,  
 T. Stein,  Yu-Chuan Su,  A. J. W. Thom,  T. Tsuchimochi,  L. Vogt,  
 O. Vydrov,  M. A. Watson,  J. Wenzel,  M. de Wergifosse,  T. A. Wesolowski,  
 A. White,  J. Witte,  A. Yamada,  Jun Yang,  K. Yao,  S. Yeganeh,  
 S. R. Yost,  Zhi-Qiang You,  A. Zech,  Igor Ying Zhang,  Xing Zhang,  
 Yan Zhao,  Ying Zhu,  B. R. Brooks,  G. K. L. Chan,  C. J. Cramer,  
 M. S. Gordon,  W. J. Hehre,  A. Klamt,  M. W. Schmidt,  C. D. Sherrill,  
 D. G. Truhlar,  A. Aspuru-Guzik,  R. Baer,  A. T. Bell,  N. A. Besley,  
 Jeng-Da Chai,  A. Dreuw,  B. D. Dunietz,  T. R. Furlani,  Chao-Ping Hsu,  
 Yousung Jung,  Jing Kong,  D. S. Lambrecht,  WanZhen Liang,  C. Ochsenfeld,  
 V. A. Rassolov,  L. V. Slipchenko,  J. E. Subotnik,  T. Van Voorhis,  
 J. M. Herbert,  A. I. Krylov,  P. M. W. Gill,  M. Head-Gordon

 Contributors to earlier versions of Q-Chem not listed above: 
 R. D. Adamson,  B. Austin,  J. Baker,  G. J. O. Beran,  K. Brandhorst,  
 S. T. Brown,  E. F. C. Byrd,  A. K. Chakraborty,  C.-L. Cheng,  
 Siu Hung Chien,  D. M. Chipman,  D. L. Crittenden,  H. Dachsel,  
 R. A. DiStasio Jr.,  R. J. Doerksen,  A. D. Dutoi,  L. Fusti-Molnar,  
 W. A. Goddard III,  A. Golubeva-Zadorozhnaya,  S. R. Gwaltney,  G. Hawkins,  
 A. Heyden,  S. Hirata,  G. Kedziora,  F. J. Keil,  C. Kelley,  Jihan Kim,  
 R. A. King,  R. Z. Khaliullin,  P. P. Korambath,  W. Kurlancheek,  
 A. M. Lee,  M. S. Lee,  S. V. Levchenko,  Ching Yeh Lin,  D. Liotard,  
 R. C. Lochan,  I. Lotan,  P. E. Maslen,  N. Nair,  D. P. O'Neill,  
 D. Neuhauser,  E. Neuscamman,  C. M. Oana,  R. Olson,  B. Peters,  
 R. Peverati,  P. A. Pieniazek,  Y. M. Rhee,  J. Ritchie,  M. A. Rohrdanz,  
 E. Rosta,  N. J. Russ,  H. F. Schaefer III,  N. E. Schultz,  N. Shenvi,  
 A. C. Simmonett,  A. Sodt,  D. Stuck,  K. S. Thanthiriwatte,  V. Vanovschi,  
 Tao Wang,  A. Warshel,  C. F. Williams,  Q. Wu,  X. Xu,  W. Zhang

 Please cite Q-Chem as follows:
 Y. Shao et al., Mol. Phys. 113, 184-215 (2015)
 DOI: 10.1080/00268976.2014.952696

 Q-Chem 5.0.0 for Intel X86 EM64T Linux

 Parts of Q-Chem use Armadillo 5.200.1 (Boston Tea Smuggler).
 http://arma.sourceforge.net/

 Q-Chem begins on Thu Jun  3 00:43:40 2021  

Host: q51
0

     Scratch files written to /scratch/junyiwang/qchem/qchem305001/Frg1s1//

Checking the input file for inconsistencies... 	...done.

--------------------------------------------------------------
User input:
--------------------------------------------------------------
$molecule
0 1
 6	32.0978022000	18.6255181000	3.2534775000
 6	31.6759276000	17.6382661000	4.0793228000
 1	31.4193344000	19.2124259000	2.7138042000
 1	33.1843901000	18.7973762000	3.0653360000
 1	32.3645806000	17.0744908000	4.6721673000
 1	30.6172776000	17.4014461000	4.1670075000
$end

$rem
METHOD		BLYP
BASIS		DZ*
LRC_DFT		TRUE
OMEGA		410
MAX_SCF_CYCLES		200
SCF_PRINT_FRGM		TRUE
SCF_FINAL_PRINT		2
SYM_IGNORE		TRUE
SCF_CONVERGENCE		5
!required keywords
JOBTYPE		SP
SYM_IGNORE		TRUE
SUBSYSTEM		TRUE
SAVE_SUBSYSTEM		TRUE
$end
--------------------------------------------------------------
 ----------------------------------------------------------------
             Standard Nuclear Orientation (Angstroms)
    I     Atom           X                Y                Z
 ----------------------------------------------------------------
    1      C      32.0978022000    18.6255181000     3.2534775000
    2      C      31.6759276000    17.6382661000     4.0793228000
    3      H      31.4193344000    19.2124259000     2.7138042000
    4      H      33.1843901000    18.7973762000     3.0653360000
    5      H      32.3645806000    17.0744908000     4.6721673000
    6      H      30.6172776000    17.4014461000     4.1670075000
 ----------------------------------------------------------------
 Nuclear Repulsion Energy =    33.1481464658 hartrees
 There are        8 alpha and        8 beta electrons
 Requested basis set is DZ(d)
 There are 22 shells and 38 basis functions

 Total QAlloc Memory Limit   2000 MB
 Mega-Array Size        61 MB
 MEM_STATIC part        62 MB

                       Distance Matrix (Angstroms)
             C (  1)   C (  2)   H (  3)   H (  4)   H (  5)
   C (  2)  1.354498
   H (  3)  1.046913  2.099633
   H (  4)  1.116067  2.155728  1.846960
   H (  5)  2.118853  1.069369  3.049499  2.494460
   H (  6)  2.127168  1.088353  2.456571  3.122878  1.848014
 
 A cutoff of  1.0D-08 yielded    253 shell pairs
 There are       773 function pairs (       862 Cartesian)
 Smallest overlap matrix eigenvalue = 4.55E-03

 Scale SEOQF with 1.000000e-03/1.000000e-03/1.000000e-01

 Standard Electronic Orientation quadrupole field applied
 Nucleus-field energy     =    -0.0000000139 hartrees
 Guess from superposition of atomic densities
 Warning:  Energy on first SCF cycle will be non-variational
 Overlap Matrix
            1           2           3           4           5           6
    1   1.0000000   0.8444081   0.3324251   0.1580343   0.0000000   0.0000000
    2   0.8444081   1.0000000   0.4262148   0.1940327   0.0000000   0.0000000
    3   0.3324251   0.4262148   1.0000000   0.7826642   0.0000000   0.0000000
    4   0.1580343   0.1940327   0.7826642   1.0000000   0.0000000   0.0000000
    5   0.0000000   0.0000000   0.0000000   0.0000000   1.0000000   0.0000000
    6   0.0000000   0.0000000   0.0000000   0.0000000   0.0000000   1.0000000
    7   0.0000000   0.0000000   0.0000000   0.0000000   0.0000000   0.0000000
    8   0.0000000   0.0000000   0.0000000  -0.0000000   0.5387949   0.0000000
    9   0.0000000  -0.0000000   0.0000000   0.0000000   0.0000000   0.5387949
   10   0.0000000   0.0000000  -0.0000000   0.0000000  -0.0000000   0.0000000
   11   0.0000000   0.0000000   0.0000000   0.0000000   0.0000000   0.0000000
   12   0.0000000   0.0000000   0.0000000   0.0000000   0.0000000   0.0000000
   13   0.0000000   0.0000000   0.0000000   0.0000000  -0.0000000  -0.0000000
   14   0.0000000   0.0000000   0.0000000  -0.0000000   0.0000000   0.0000000
   15   0.0000000   0.0000000  -0.0000000  -0.0000000   0.0000000  -0.0000000
   16   0.0000957   0.0000183   0.0197435   0.0606131  -0.0190506  -0.0445814
   17   0.0000183   0.0000000   0.0219728   0.0731634  -0.0227746  -0.0532961
   18   0.0197435   0.0219728   0.1968174   0.3633576  -0.1081650  -0.2531230
   19   0.0606131   0.0731634   0.3633576   0.6052048  -0.0971754  -0.2274055
   20   0.0190506   0.0227746   0.1081650   0.0971754   0.1367900  -0.1228737
   21   0.0445814   0.0532961   0.2531230   0.2274055  -0.1228737  -0.0982469
   22  -0.0372927  -0.0445827  -0.2117397  -0.1902268   0.1027850   0.2405327
   23   0.0326221   0.0399525   0.1643956   0.1978395   0.2642708  -0.0799145
   24   0.0763407   0.0934950   0.3847112   0.4629752  -0.0799145   0.1114077
   25  -0.0638597  -0.0782094  -0.3218145  -0.3872829   0.0668492   0.1564375
   26   0.0215143   0.0253671   0.0968642   0.0363105   0.0959244  -0.0713067
   27  -0.0421155  -0.0496577  -0.1896176  -0.0710800   0.1149232   0.1395872
   28   0.0031523   0.0037168   0.0141925   0.0053202  -0.0467517  -0.1094062
   29  -0.0179969  -0.0212198  -0.0810278  -0.0303741  -0.0802417   0.1149232
   30  -0.0205766  -0.0242615  -0.0926425  -0.0347279   0.1222262  -0.0232352
   31   0.0373733   0.0426306   0.2941985   0.3884858  -0.2949446   0.2551415
   32   0.0903442   0.1099008   0.4957431   0.7217376  -0.2339263   0.2023577
   33   0.0278934   0.0312210   0.2513401   0.3631345   0.4041698   0.0639247
   34   0.0825795   0.1002709   0.4622919   0.6907043   0.3502356   0.0553943
   35   0.0000680   0.0000377   0.0089167   0.0842708   0.0050313  -0.0292516
   36   0.0117943   0.0137236   0.1016065   0.2662856   0.0202255  -0.1175896
   37   0.0000639   0.0000351   0.0086025   0.0829439  -0.0270843  -0.0223928
   38   0.0115474   0.0134298   0.0999448   0.2635376  -0.1105046  -0.0913633
            7           8           9          10          11          12
    1   0.0000000   0.0000000   0.0000000   0.0000000   0.0000000   0.0000000
    2   0.0000000   0.0000000  -0.0000000   0.0000000   0.0000000   0.0000000
    3   0.0000000   0.0000000   0.0000000  -0.0000000   0.0000000   0.0000000
    4   0.0000000  -0.0000000   0.0000000   0.0000000   0.0000000   0.0000000
    5   0.0000000   0.5387949   0.0000000  -0.0000000   0.0000000   0.0000000
    6   0.0000000   0.0000000   0.5387949   0.0000000   0.0000000   0.0000000
    7   1.0000000  -0.0000000   0.0000000   0.5387949   0.0000000   0.0000000
    8  -0.0000000   1.0000000   0.0000000   0.0000000   0.0000000   0.0000000
    9   0.0000000   0.0000000   1.0000000   0.0000000  -0.0000000  -0.0000000
   10   0.5387949   0.0000000   0.0000000   1.0000000   0.0000000   0.0000000
   11   0.0000000   0.0000000  -0.0000000   0.0000000   1.0000000   0.0000000
   12   0.0000000   0.0000000  -0.0000000   0.0000000   0.0000000   1.0000000
   13   0.0000000   0.0000000   0.0000000  -0.0000000   0.0000000   0.0000000
   14   0.0000000  -0.0000000   0.0000000  -0.0000000   0.0000000   0.0000000
   15   0.0000000  -0.0000000   0.0000000   0.0000000   0.0000000   0.0000000
   16   0.0372927  -0.0326221  -0.0763407   0.0638597   0.0215143  -0.0421155
   17   0.0445827  -0.0399525  -0.0934950   0.0782094   0.0253671  -0.0496577
   18   0.2117397  -0.1643956  -0.3847112   0.3218145   0.0968642  -0.1896176
   19   0.1902268  -0.1978395  -0.4629752   0.3872829   0.0363105  -0.0710800
   20   0.1027850   0.2642708  -0.0799145   0.0668492  -0.0959244  -0.1149232
   21   0.2405327  -0.0799145   0.1114077   0.1564375   0.0713067  -0.1395872
   22  -0.0119112   0.0668492   0.1564375   0.1675586  -0.1149232   0.0703374
   23   0.0668492   0.6369665  -0.1170992   0.0979546  -0.0738878  -0.0209210
   24   0.1564375  -0.1170992   0.4129752   0.2292289  -0.0111309   0.0217894
   25   0.1675586   0.0979546   0.2292289   0.4952535  -0.0209210  -0.0436209
   26   0.1149232   0.0738878   0.0111309   0.0209210  -0.0722273  -0.1287875
   27  -0.0703374   0.0209210  -0.0217894   0.0436209  -0.1287875   0.1140924
   28  -0.1325231  -0.0224318  -0.0524939  -0.0786272   0.1260141   0.0774596
   29  -0.0300567  -0.0618078   0.0209210   0.0186402   0.0979355   0.0790279
   30  -0.1099144   0.0463623  -0.0606552  -0.0200092  -0.1019938   0.0125169
   31  -0.2346076  -0.2786504   0.2410463  -0.2216468  -0.2376960  -0.1890704
   32  -0.1860719  -0.3876224   0.3353123  -0.3083263  -0.0622267  -0.0494969
   33  -0.0699816   0.4233004   0.0669505  -0.0732940   0.0902661  -0.0156295
   34  -0.0606429   0.5981168   0.0946000  -0.1035633   0.0270272  -0.0046797
   35   0.0267558   0.0330799  -0.1923240   0.1759144  -0.0029321  -0.0155925
   36   0.1075566   0.0655303  -0.3809875   0.3484807  -0.0113476  -0.0603449
   37   0.0167119  -0.1813108  -0.1499046   0.1118744   0.0122845  -0.0075799
   38   0.0681848  -0.3604898  -0.2980467   0.2224335   0.0488083  -0.0301162
           13          14          15          16          17          18
    1   0.0000000   0.0000000   0.0000000   0.0000957   0.0000183   0.0197435
    2   0.0000000   0.0000000   0.0000000   0.0000183   0.0000000   0.0219728
    3   0.0000000   0.0000000  -0.0000000   0.0197435   0.0219728   0.1968174
    4   0.0000000  -0.0000000  -0.0000000   0.0606131   0.0731634   0.3633576
    5  -0.0000000   0.0000000   0.0000000  -0.0190506  -0.0227746  -0.1081650
    6  -0.0000000   0.0000000  -0.0000000  -0.0445814  -0.0532961  -0.2531230
    7   0.0000000   0.0000000   0.0000000   0.0372927   0.0445827   0.2117397
    8   0.0000000  -0.0000000  -0.0000000  -0.0326221  -0.0399525  -0.1643956
    9   0.0000000   0.0000000   0.0000000  -0.0763407  -0.0934950  -0.3847112
   10  -0.0000000  -0.0000000   0.0000000   0.0638597   0.0782094   0.3218145
   11   0.0000000   0.0000000   0.0000000   0.0215143   0.0253671   0.0968642
   12   0.0000000   0.0000000   0.0000000  -0.0421155  -0.0496577  -0.1896176
   13   1.0000000   0.0000000  -0.0000000   0.0031523   0.0037168   0.0141925
   14   0.0000000   1.0000000   0.0000000  -0.0179969  -0.0212198  -0.0810278
   15   0.0000000   0.0000000   1.0000000  -0.0205766  -0.0242615  -0.0926425
   16   0.0031523  -0.0179969  -0.0205766   1.0000000   0.8444081   0.3324251
   17   0.0037168  -0.0212198  -0.0242615   0.8444081   1.0000000   0.4262148
   18   0.0141925  -0.0810278  -0.0926425   0.3324251   0.4262148   1.0000000
   19   0.0053202  -0.0303741  -0.0347279   0.1580343   0.1940327   0.7826642
   20   0.0467517   0.0802417  -0.1222262  -0.0000000   0.0000000   0.0000000
   21   0.1094062  -0.1149232   0.0232352   0.0000000   0.0000000   0.0000000
   22   0.1325231   0.0300567   0.1099144   0.0000000   0.0000000   0.0000000
   23   0.0224318   0.0618078  -0.0463623  -0.0000000   0.0000000   0.0000000
   24   0.0524939  -0.0209210   0.0606552  -0.0000000   0.0000000   0.0000000
   25   0.0786272  -0.0186402   0.0200092   0.0000000   0.0000000  -0.0000000
   26   0.1260141   0.0979355  -0.1019938   0.0000000   0.0000000   0.0000000
   27   0.0774596   0.0790279   0.0125169   0.0000000   0.0000000   0.0000000
   28  -0.2089278   0.0331002  -0.1205219   0.0000000   0.0000000   0.0000000
   29   0.0331002  -0.0370748   0.1652888   0.0000000   0.0000000   0.0000000
   30  -0.1205219   0.1652888  -0.0813203   0.0000000   0.0000000  -0.0000000
   31  -0.0383038   0.2185662   0.0345794   0.0000787   0.0000446   0.0096825
   32  -0.0100276   0.0572186   0.0090526   0.0123814   0.0144230   0.1055278
   33  -0.1589940  -0.0988188   0.2782194   0.0000512   0.0000272   0.0075975
   34  -0.0476054  -0.0295880   0.0833035   0.0107315   0.0124595   0.0943949
   35   0.0031676   0.0026819  -0.0082713   0.0340454   0.0386086   0.2798291
   36   0.0122590   0.0103794  -0.0320111   0.0878011   0.1067450   0.4848608
   37  -0.0039551  -0.0091680   0.0023508   0.0314233   0.0354516   0.2680187
   38  -0.0157143  -0.0364258   0.0093401   0.0856667   0.1040978   0.4756729
           19          20          21          22          23          24
    1   0.0606131   0.0190506   0.0445814  -0.0372927   0.0326221   0.0763407
    2   0.0731634   0.0227746   0.0532961  -0.0445827   0.0399525   0.0934950
    3   0.3633576   0.1081650   0.2531230  -0.2117397   0.1643956   0.3847112
    4   0.6052048   0.0971754   0.2274055  -0.1902268   0.1978395   0.4629752
    5  -0.0971754   0.1367900  -0.1228737   0.1027850   0.2642708  -0.0799145
    6  -0.2274055  -0.1228737  -0.0982469   0.2405327  -0.0799145   0.1114077
    7   0.1902268   0.1027850   0.2405327  -0.0119112   0.0668492   0.1564375
    8  -0.1978395   0.2642708  -0.0799145   0.0668492   0.6369665  -0.1170992
    9  -0.4629752  -0.0799145   0.1114077   0.1564375  -0.1170992   0.4129752
   10   0.3872829   0.0668492   0.1564375   0.1675586   0.0979546   0.2292289
   11   0.0363105  -0.0959244   0.0713067  -0.1149232  -0.0738878  -0.0111309
   12  -0.0710800  -0.1149232  -0.1395872   0.0703374  -0.0209210   0.0217894
   13   0.0053202   0.0467517   0.1094062   0.1325231   0.0224318   0.0524939
   14  -0.0303741   0.0802417  -0.1149232   0.0300567   0.0618078  -0.0209210
   15  -0.0347279  -0.1222262   0.0232352   0.1099144  -0.0463623   0.0606552
   16   0.1580343  -0.0000000   0.0000000   0.0000000  -0.0000000  -0.0000000
   17   0.1940327   0.0000000   0.0000000   0.0000000   0.0000000   0.0000000
   18   0.7826642   0.0000000   0.0000000   0.0000000   0.0000000   0.0000000
   19   1.0000000   0.0000000   0.0000000  -0.0000000   0.0000000   0.0000000
   20   0.0000000   1.0000000   0.0000000   0.0000000   0.5387949   0.0000000
   21   0.0000000   0.0000000   1.0000000   0.0000000   0.0000000   0.5387949
   22  -0.0000000   0.0000000   0.0000000   1.0000000   0.0000000   0.0000000
   23   0.0000000   0.5387949   0.0000000   0.0000000   1.0000000   0.0000000
   24   0.0000000   0.0000000   0.5387949   0.0000000   0.0000000   1.0000000
   25   0.0000000   0.0000000   0.0000000   0.5387949   0.0000000   0.0000000
   26   0.0000000   0.0000000   0.0000000   0.0000000   0.0000000   0.0000000
   27   0.0000000   0.0000000   0.0000000   0.0000000   0.0000000   0.0000000
   28   0.0000000  -0.0000000  -0.0000000   0.0000000   0.0000000   0.0000000
   29   0.0000000   0.0000000   0.0000000   0.0000000   0.0000000   0.0000000
   30  -0.0000000   0.0000000  -0.0000000   0.0000000   0.0000000   0.0000000
   31   0.0873990  -0.0051903   0.0318415  -0.0276212  -0.0327397   0.2008529
   32   0.2727053  -0.0201641   0.1237039  -0.1073080  -0.0643124   0.3945468
   33   0.0785065   0.0248354   0.0190837  -0.0166943   0.1769345   0.1359574
   34   0.2542340   0.1066597   0.0819579  -0.0716966   0.3562853   0.2737714
   35   0.3802447   0.2847961  -0.2331523   0.2451740   0.2781251  -0.2276910
   36   0.7117296   0.2324090  -0.1902648   0.2000752   0.3888179  -0.3183112
   37   0.3732822  -0.4194954  -0.0938411   0.0347455  -0.4214133  -0.0942702
   38   0.7032149  -0.3507464  -0.0784620   0.0290512  -0.5916614  -0.1323547
           25          26          27          28          29          30
    1  -0.0638597   0.0215143  -0.0421155   0.0031523  -0.0179969  -0.0205766
    2  -0.0782094   0.0253671  -0.0496577   0.0037168  -0.0212198  -0.0242615
    3  -0.3218145   0.0968642  -0.1896176   0.0141925  -0.0810278  -0.0926425
    4  -0.3872829   0.0363105  -0.0710800   0.0053202  -0.0303741  -0.0347279
    5   0.0668492   0.0959244   0.1149232  -0.0467517  -0.0802417   0.1222262
    6   0.1564375  -0.0713067   0.1395872  -0.1094062   0.1149232  -0.0232352
    7   0.1675586   0.1149232  -0.0703374  -0.1325231  -0.0300567  -0.1099144
    8   0.0979546   0.0738878   0.0209210  -0.0224318  -0.0618078   0.0463623
    9   0.2292289   0.0111309  -0.0217894  -0.0524939   0.0209210  -0.0606552
   10   0.4952535   0.0209210   0.0436209  -0.0786272   0.0186402  -0.0200092
   11  -0.0209210  -0.0722273  -0.1287875   0.1260141   0.0979355  -0.1019938
   12  -0.0436209  -0.1287875   0.1140924   0.0774596   0.0790279   0.0125169
   13   0.0786272   0.1260141   0.0774596  -0.2089278   0.0331002  -0.1205219
   14  -0.0186402   0.0979355   0.0790279   0.0331002  -0.0370748   0.1652888
   15   0.0200092  -0.1019938   0.0125169  -0.1205219   0.1652888  -0.0813203
   16   0.0000000   0.0000000   0.0000000   0.0000000   0.0000000   0.0000000
   17   0.0000000   0.0000000   0.0000000   0.0000000   0.0000000   0.0000000
   18  -0.0000000   0.0000000   0.0000000   0.0000000   0.0000000  -0.0000000
   19   0.0000000   0.0000000   0.0000000   0.0000000   0.0000000  -0.0000000
   20   0.0000000   0.0000000   0.0000000  -0.0000000   0.0000000   0.0000000
   21   0.0000000   0.0000000   0.0000000  -0.0000000   0.0000000  -0.0000000
   22   0.5387949   0.0000000   0.0000000   0.0000000   0.0000000   0.0000000
   23   0.0000000   0.0000000   0.0000000   0.0000000   0.0000000   0.0000000
   24   0.0000000   0.0000000   0.0000000   0.0000000   0.0000000   0.0000000
   25   1.0000000   0.0000000   0.0000000   0.0000000   0.0000000   0.0000000
   26   0.0000000   1.0000000   0.0000000   0.0000000   0.0000000   0.0000000
   27   0.0000000   0.0000000   1.0000000   0.0000000   0.0000000   0.0000000
   28   0.0000000   0.0000000   0.0000000   1.0000000   0.0000000  -0.0000000
   29   0.0000000   0.0000000   0.0000000   0.0000000   1.0000000   0.0000000
   30   0.0000000   0.0000000   0.0000000   0.0000000   0.0000000   1.0000000
   31  -0.1742316  -0.0031694  -0.0168668   0.0026853   0.0027494  -0.0094637
   32  -0.3422531  -0.0115474  -0.0614520   0.0097833   0.0100169  -0.0344796
   33  -0.1189352   0.0101638  -0.0068321  -0.0026222  -0.0088913   0.0027086
   34  -0.2394946   0.0442271  -0.0297294  -0.0114104  -0.0386898   0.0117863
   35   0.2394311  -0.2166644  -0.1865211  -0.0143629   0.2278360   0.0436404
   36   0.3347238  -0.0592107  -0.0509730  -0.0039251   0.0622637   0.0119262
   37   0.0349044   0.1320519  -0.0109375  -0.1765966  -0.0488934   0.2803840
   38   0.0490055   0.0374405  -0.0031011  -0.0500703  -0.0138627   0.0794970
           31          32          33          34          35          36
    1   0.0373733   0.0903442   0.0278934   0.0825795   0.0000680   0.0117943
    2   0.0426306   0.1099008   0.0312210   0.1002709   0.0000377   0.0137236
    3   0.2941985   0.4957431   0.2513401   0.4622919   0.0089167   0.1016065
    4   0.3884858   0.7217376   0.3631345   0.6907043   0.0842708   0.2662856
    5  -0.2949446  -0.2339263   0.4041698   0.3502356   0.0050313   0.0202255
    6   0.2551415   0.2023577   0.0639247   0.0553943  -0.0292516  -0.1175896
    7  -0.2346076  -0.1860719  -0.0699816  -0.0606429   0.0267558   0.1075566
    8  -0.2786504  -0.3876224   0.4233004   0.5981168   0.0330799   0.0655303
    9   0.2410463   0.3353123   0.0669505   0.0946000  -0.1923240  -0.3809875
   10  -0.2216468  -0.3083263  -0.0732940  -0.1035633   0.1759144   0.3484807
   11  -0.2376960  -0.0622267   0.0902661   0.0270272  -0.0029321  -0.0113476
   12  -0.1890704  -0.0494969  -0.0156295  -0.0046797  -0.0155925  -0.0603449
   13  -0.0383038  -0.0100276  -0.1589940  -0.0476054   0.0031676   0.0122590
   14   0.2185662   0.0572186  -0.0988188  -0.0295880   0.0026819   0.0103794
   15   0.0345794   0.0090526   0.2782194   0.0833035  -0.0082713  -0.0320111
   16   0.0000787   0.0123814   0.0000512   0.0107315   0.0340454   0.0878011
   17   0.0000446   0.0144230   0.0000272   0.0124595   0.0386086   0.1067450
   18   0.0096825   0.1055278   0.0075975   0.0943949   0.2798291   0.4848608
   19   0.0873990   0.2727053   0.0785065   0.2542340   0.3802447   0.7117296
   20  -0.0051903  -0.0201641   0.0248354   0.1066597   0.2847961   0.2324090
   21   0.0318415   0.1237039   0.0190837   0.0819579  -0.2331523  -0.1902648
   22  -0.0276212  -0.1073080  -0.0166943  -0.0716966   0.2451740   0.2000752
   23  -0.0327397  -0.0643124   0.1769345   0.3562853   0.2781251   0.3888179
   24   0.2008529   0.3945468   0.1359574   0.2737714  -0.2276910  -0.3183112
   25  -0.1742316  -0.3422531  -0.1189352  -0.2394946   0.2394311   0.3347238
   26  -0.0031694  -0.0115474   0.0101638   0.0442271  -0.2166644  -0.0592107
   27  -0.0168668  -0.0614520  -0.0068321  -0.0297294  -0.1865211  -0.0509730
   28   0.0026853   0.0097833  -0.0026222  -0.0114104  -0.0143629  -0.0039251
   29   0.0027494   0.0100169  -0.0088913  -0.0386898   0.2278360   0.0622637
   30  -0.0094637  -0.0344796   0.0027086   0.0117863   0.0436404   0.0119262
   31   1.0000000   0.6830602   0.0128766   0.1206168   0.0000130   0.0061664
   32   0.6830602   1.0000000   0.1206168   0.3390027   0.0061664   0.0523946
   33   0.0128766   0.1206168   1.0000000   0.6830602   0.0004717   0.0290927
   34   0.1206168   0.3390027   0.6830602   1.0000000   0.0290927   0.1390160
   35   0.0000130   0.0061664   0.0004717   0.0290927   1.0000000   0.6830602
   36   0.0061664   0.0523946   0.0290927   0.1390160   0.6830602   1.0000000
   37   0.0005875   0.0319837   0.0000076   0.0049094   0.0128171   0.1203791
   38   0.0319837   0.1475364   0.0049094   0.0453848   0.1203791   0.3385846
           37          38
    1   0.0000639   0.0115474
    2   0.0000351   0.0134298
    3   0.0086025   0.0999448
    4   0.0829439   0.2635376
    5  -0.0270843  -0.1105046
    6  -0.0223928  -0.0913633
    7   0.0167119   0.0681848
    8  -0.1813108  -0.3604898
    9  -0.1499046  -0.2980467
   10   0.1118744   0.2224335
   11   0.0122845   0.0488083
   12  -0.0075799  -0.0301162
   13  -0.0039551  -0.0157143
   14  -0.0091680  -0.0364258
   15   0.0023508   0.0093401
   16   0.0314233   0.0856667
   17   0.0354516   0.1040978
   18   0.2680187   0.4756729
   19   0.3732822   0.7032149
   20  -0.4194954  -0.3507464
   21  -0.0938411  -0.0784620
   22   0.0347455   0.0290512
   23  -0.4214133  -0.5916614
   24  -0.0942702  -0.1323547
   25   0.0349044   0.0490055
   26   0.1320519   0.0374405
   27  -0.0109375  -0.0031011
   28  -0.1765966  -0.0500703
   29  -0.0488934  -0.0138627
   30   0.2803840   0.0794970
   31   0.0005875   0.0319837
   32   0.0319837   0.1475364
   33   0.0000076   0.0049094
   34   0.0049094   0.0453848
   35   0.0128171   0.1203791
   36   0.1203791   0.3385846
   37   1.0000000   0.6830602
   38   0.6830602   1.0000000
 Long-range K will be added via erf
 Coulomb attenuation parameter = 0.41 bohr**(-1)

 *************************************************************
 **                       Warning:                          **
 **  You have requested long-range HF exchange but are not  **
 **  using a Coulomb-attenuated (short-range) GGA exchange  **
 **  functional.  This is discouraged.  Instead, use a      **
 **  short-range exchange functional such as wPBE, muPBE,   **
 **  muB88, or Chai and Head-Gordon's LRC hybrid functionals**
 **  (wB97, wB97X, wB97X-D, wB97X-2(LP), and wB97X-2(TQZ)). **
 **  Consult the Q-Chem documentation regarding LRC-DFT.    **
 *************************************************************

 A restricted Kohn-Sham SCF calculation will be
 performed using Pulay DIIS extrapolation
 Exchange:  B88 + LR-HF      Correlation:  LYP
 Using SG-1 standard quadrature grid
 SCF converges when DIIS error is below 1.0E-05
 -------------------------------------------------------
 OpenMP Integral computing Module                
 -------------------------------------------------------
 -------------------------------------------------------
 OpenMP Integral computing Module                
 -------------------------------------------------------
 ---------------------------------------
  Cycle       Energy         DIIS Error
 ---------------------------------------
    1     -81.9293479574      1.16E-01
    2     -81.7261285026      1.02E-02
    3     -81.7445227645      4.83E-03
    4     -81.7489172516      4.53E-04
    5     -81.7489844048      5.04E-05
    6     -81.7489855066      1.57E-05
    7     -81.7489856591      9.57E-06 Convergence criterion met
 ---------------------------------------
 One-Electron    Energy =  -170.3510443407
 Total Coulomb   Energy =    71.0003613358
 Alpha Exchange  Energy =    -1.6089515917
 Beta  Exchange  Energy =    -1.6089515917
 DFT   Exchange  Energy =   -11.8290009738
 DFT Correlation Energy =    -0.4995449491
 Nuclear Repu.   Energy =    33.1481464519
 Nuclear Attr.   Energy =  -248.7942936883
 Kinetic         Energy =    78.4432493476
 SCF time:  CPU 1.28 s  wall 1.37 s
 Final Alpha MO Eigenvalues
            1           2           3           4           5           6
    1 -10.3268764 -10.3262153  -1.0690380  -0.8910033  -0.7674225  -0.7082337
            7           8           9          10          11          12
    1  -0.6544475  -0.5422381  -0.0554481   0.1084186   0.1134058   0.1564606
           13
    1   0.2214349
 Final Alpha MO Coefficients
            1           2           3           4           5           6
    1   0.4948164  -0.3406792  -0.1013085   0.0789379  -0.0048566  -0.0097306
    2   0.3574065  -0.2457344  -0.1259116   0.0991793  -0.0060841  -0.0118322
    3   0.0141056  -0.0115688   0.3491383  -0.2823296   0.0172017   0.0291904
    4  -0.0089827   0.0124264   0.2101258  -0.2168826   0.0215796  -0.0243653
    5  -0.0000671   0.0004547  -0.0389032  -0.0371677   0.3637874  -0.1291409
    6   0.0000796   0.0009299  -0.0708870  -0.1536203  -0.0929254  -0.3519648
    7  -0.0000895  -0.0007697   0.0555984   0.1389637   0.0897325   0.3070479
    8   0.0000233  -0.0012136   0.0048177  -0.0025189   0.0447398  -0.0031520
    9  -0.0002864  -0.0023275   0.0090946  -0.0155523  -0.0108991  -0.0443927
   10   0.0003888   0.0018926  -0.0079980   0.0140409   0.0113353   0.0401249
   11  -0.0001334  -0.0004674   0.0022449   0.0072843   0.0061599   0.0106267
   12  -0.0000737   0.0010969  -0.0138906   0.0042745   0.0024938  -0.0021820
   13  -0.0000401  -0.0000393  -0.0029921   0.0067279  -0.0021326   0.0054265
   14   0.0001020   0.0003746  -0.0019418  -0.0061711  -0.0070877  -0.0090034
   15   0.0000721   0.0004413   0.0009968  -0.0118870   0.0046062  -0.0123464
   16   0.3405745   0.4948879  -0.1014015  -0.0789366   0.0024932  -0.0093810
   17   0.2461183   0.3571420  -0.1260287  -0.0991756   0.0031799  -0.0113925
   18   0.0090436   0.0158423   0.3495627   0.2824396  -0.0092130   0.0277724
   19  -0.0039600  -0.0148014   0.2102250   0.2162988  -0.0145860  -0.0245188
   20  -0.0001550   0.0003889   0.0308962  -0.0506546   0.3803140   0.1069348
   21  -0.0003924   0.0008645   0.0711767  -0.1515928  -0.0537117   0.3619019
   22   0.0003390  -0.0006987  -0.0592201   0.1315677   0.0840596  -0.3075389
   23   0.0004091  -0.0007655  -0.0051148  -0.0075960   0.0465117  -0.0002952
   24   0.0011091  -0.0021258  -0.0091285  -0.0146266  -0.0087118   0.0457314
   25  -0.0010010   0.0017861   0.0075515   0.0122322   0.0113625  -0.0405665
   26  -0.0002367   0.0004403   0.0034423  -0.0045974  -0.0065834   0.0094020
   27   0.0003373  -0.0010276  -0.0137420  -0.0036975  -0.0033709  -0.0022571
   28  -0.0000529   0.0000055  -0.0028338  -0.0068079   0.0042533   0.0049808
   29   0.0002341  -0.0003379  -0.0007896   0.0074643   0.0048469  -0.0105232
   30   0.0002521  -0.0003575   0.0012210   0.0125041  -0.0056630  -0.0124910
   31  -0.0008575   0.0000869   0.0994244  -0.1654989  -0.1542714  -0.1326894
   32   0.0026645  -0.0010526   0.0177112  -0.0639582  -0.0891177  -0.0792091
   33  -0.0005920  -0.0000860   0.0871076  -0.1363865   0.1625324  -0.1086073
   34   0.0022518  -0.0006614   0.0170534  -0.0601573   0.1011668  -0.0828664
   35  -0.0007105  -0.0002857   0.0947755   0.1571844   0.1501557  -0.1440490
   36   0.0020451   0.0016315   0.0179046   0.0654546   0.0883623  -0.0896954
   37  -0.0006457  -0.0002313   0.0926317   0.1440409  -0.1733868  -0.0976913
   38   0.0019243   0.0017106   0.0173521   0.0590062  -0.1046687  -0.0734707
            7           8           9          10          11          12
    1  -0.0000989  -0.0019148  -0.0027026  -0.0720540  -0.0317112   0.0106204
    2  -0.0001230  -0.0024654  -0.0034919  -0.0915482  -0.0418460   0.0133276
    3   0.0002513   0.0078501   0.0100001   0.1783800   0.1360595  -0.0234261
    4   0.0130037   0.0092984   0.0329435   2.8627445   0.8470821  -0.6924435
    5   0.3757435   0.0187416   0.0064562   0.1383200   0.1336295   0.4733274
    6  -0.0784418   0.3312555   0.3420289   0.0608045   0.1267607  -0.1140041
    7   0.0331709   0.3846034   0.3873061  -0.0731271  -0.1248697   0.0868925
    8   0.0935283   0.0031094  -0.0009227  -0.1865432   0.4249371   0.6991641
    9  -0.0207872   0.1086216   0.4028399  -0.8267142   0.7745452   0.0493004
   10   0.0114829   0.1252177   0.4600246   0.6452085  -0.7241869  -0.1221274
   11   0.0188499  -0.0023970   0.0031111  -0.0073292   0.0089650  -0.0292863
   12   0.0097278  -0.0023779   0.0037472  -0.0047870  -0.0039318  -0.0162808
   13  -0.0091566   0.0146253  -0.0245375  -0.0003858   0.0120753   0.0156404
   14  -0.0169693  -0.0076467   0.0080128   0.0063011  -0.0100531   0.0255266
   15   0.0147948   0.0111527  -0.0163665   0.0018456  -0.0214897  -0.0244816
   16   0.0012349   0.0010231   0.0003595   0.0501592  -0.0619030   0.0005092
   17   0.0015696   0.0013267   0.0005053   0.0630901  -0.0800134   0.0013557
   18  -0.0044963  -0.0042525  -0.0023989  -0.0997964   0.2028935  -0.0213741
   19   0.0009212  -0.0012346   0.0048324  -2.1844826   2.1575625   0.2088278
   20  -0.3633245  -0.0639930   0.0472807   0.0663930  -0.0628911   0.4744453
   21   0.0239128   0.3352929  -0.3471250   0.0066851  -0.1767479  -0.0558745
   22  -0.1003585   0.3761249  -0.3803300   0.0086271   0.1572255   0.1169278
   23  -0.0908576  -0.0177521   0.0494915  -0.3789106  -0.1434516   0.7770919
   24   0.0097289   0.1095397  -0.4085818  -1.0231970  -0.3128367   0.3852965
   25  -0.0260631   0.1232746  -0.4527979   0.9002930   0.3150140  -0.1607014
   26   0.0191188   0.0052901   0.0063413   0.0118857   0.0116661   0.0278339
   27   0.0100251   0.0041392   0.0053248   0.0036108  -0.0020597   0.0178339
   28  -0.0083518  -0.0165874  -0.0252052   0.0057177   0.0072570  -0.0153938
   29  -0.0157506   0.0039396   0.0068401  -0.0125579  -0.0117768  -0.0200872
   30   0.0156223  -0.0083930  -0.0142424  -0.0085016  -0.0122264   0.0322877
   31  -0.1826435  -0.0142985   0.0013942  -0.0314711  -0.0340997   0.0850365
   32  -0.1215633  -0.0139915   0.0071014  -0.4005168  -0.8603983   1.0392107
   33   0.2107095   0.0131551  -0.0168060  -0.0735623  -0.0581722  -0.1128862
   34   0.1524187   0.0173024  -0.0355080  -0.7599913  -1.0369058  -0.9832710
   35  -0.1844327  -0.0125074  -0.0096135   0.0067532  -0.0701442  -0.0771002
   36  -0.1248870  -0.0148331  -0.0212493  -0.0222176  -1.1530130  -0.7207778
   37   0.2026660   0.0147940   0.0083962   0.0445329  -0.0544362   0.1195477
   38   0.1427688   0.0165459   0.0189415   0.2503886  -1.0529337   1.2820048
           13
    1  -0.0222220
    2  -0.0311235
    3   0.1100287
    4   0.2648854
    5   0.0463085
    6   0.1259955
    7  -0.1327641
    8   0.2590793
    9   1.3138379
   10  -1.1598705
   11   0.0265734
   12  -0.0064507
   13   0.0084244
   14  -0.0187702
   15  -0.0186425
   16   0.0220447
   17   0.0309587
   18  -0.1110574
   19  -0.2117675
   20  -0.0533871
   21   0.1549054
   22  -0.1575693
   23   0.4033673
   24   1.2720802
   25  -1.0606264
   26  -0.0182795
   27   0.0070764
   28  -0.0056285
   29   0.0227881
   30   0.0211239
   31  -0.1295743
   32  -1.6040021
   33  -0.0891115
   34  -1.0547210
   35   0.1304875
   36   1.5714100
   37   0.0878783
   38   1.0317719
 Final Alpha density matrix.
            1           2           3           4           5           6
    1   0.3775222   0.2813015  -0.0471189  -0.0469728   0.0002359  -0.0019728
    2   0.2813015   0.2139982  -0.0645470  -0.0540991   0.0002986  -0.0025877
    3  -0.0471189  -0.0645470   0.2031500   0.1340611  -0.0003656   0.0093208
    4  -0.0469728  -0.0540991   0.1340611   0.0927409   0.0159500   0.0270638
    5   0.0002359   0.0002986  -0.0003656   0.0159500   0.2934482  -0.0031499
    6  -0.0019728  -0.0025877   0.0093208   0.0270638  -0.0031499   0.2770227
    7   0.0013916   0.0018077  -0.0062804  -0.0200023   0.0053347  -0.0168981
    8  -0.0004638  -0.0008040   0.0031331   0.0038307   0.0517894  -0.0093103
    9  -0.0012188  -0.0018917   0.0069532   0.0068438  -0.0037837   0.0559918
   10   0.0007799   0.0012196  -0.0044208  -0.0041252   0.0053934   0.0238142
   11   0.0003102   0.0003473  -0.0008672  -0.0010159   0.0075481  -0.0078638
   12   0.0013472   0.0018924  -0.0061073  -0.0036202   0.0051816  -0.0006855
   13   0.0007582   0.0009532  -0.0027100  -0.0022493  -0.0047767   0.0030298
   14  -0.0002292  -0.0002525   0.0006124   0.0007088  -0.0076300   0.0037116
   15  -0.0010790  -0.0012984   0.0035101   0.0034887   0.0094414   0.0082072
   16   0.0040427   0.0051444  -0.0142609  -0.0007888   0.0096825   0.0231138
   17   0.0051443   0.0063465  -0.0169284  -0.0023663   0.0119776   0.0285515
   18  -0.0142576  -0.0169241   0.0428667   0.0113381  -0.0327974  -0.0781272
   19  -0.0008287  -0.0024137   0.0114693  -0.0026030  -0.0180411  -0.0386402
   20  -0.0100669  -0.0124417   0.0341515   0.0177663  -0.0124914  -0.0600846
   21  -0.0235709  -0.0291344   0.0799124   0.0412999  -0.0481412   0.0050493
   22   0.0186649   0.0230106  -0.0624124  -0.0294905   0.0370493   0.2168832
   23   0.0002017   0.0000004   0.0010027   0.0002238  -0.0170324  -0.0014429
   24   0.0004298  -0.0001418   0.0030301   0.0010605  -0.0024688   0.0231284
   25  -0.0007972  -0.0004242  -0.0008793   0.0010060   0.0011421   0.0536891
   26  -0.0010503  -0.0011688   0.0026989   0.0016547   0.0037109  -0.0019821
   27   0.0016467   0.0017724  -0.0038262  -0.0019503   0.0035812   0.0032336
   28  -0.0003149  -0.0003815   0.0010181   0.0005892  -0.0021817  -0.0057412
   29   0.0009731   0.0010937  -0.0025727  -0.0015983  -0.0029690   0.0047029
   30   0.0012735   0.0014654  -0.0036203  -0.0021548   0.0047532  -0.0010908
   31  -0.0215047  -0.0266942   0.0747399   0.0541902  -0.1055981   0.0890043
   32  -0.0039236  -0.0058336   0.0203052   0.0158519  -0.0664421   0.0496300
   33  -0.0196330  -0.0244472   0.0686930   0.0569036   0.1542526   0.0257286
   34  -0.0048700  -0.0068427   0.0224731   0.0229471   0.1066713   0.0215727
   35   0.0032666   0.0043167  -0.0130612  -0.0099374  -0.0058358   0.0162056
   36   0.0042935   0.0051430  -0.0134647  -0.0081015  -0.0066038   0.0169186
   37   0.0034895   0.0045979  -0.0139993  -0.0103611   0.0170103   0.0108048
   38   0.0044468   0.0053825  -0.0143729  -0.0076055   0.0224980   0.0195745
            7           8           9          10          11          12
    1   0.0013916  -0.0004638  -0.0012188   0.0007799   0.0003102   0.0013472
    2   0.0018077  -0.0008040  -0.0018917   0.0012196   0.0003473   0.0018924
    3  -0.0062804   0.0031331   0.0069532  -0.0044208  -0.0008672  -0.0061073
    4  -0.0200023   0.0038307   0.0068438  -0.0041252  -0.0010159  -0.0036202
    5   0.0053347   0.0517894  -0.0037837   0.0053934   0.0075481   0.0051816
    6  -0.0168981  -0.0093103   0.0559918   0.0238142  -0.0078638  -0.0006855
    7   0.2737531   0.0072639   0.0248243   0.0633825   0.0046565  -0.0012172
    8   0.0072639   0.0107998  -0.0018683   0.0017678   0.0019907   0.0009419
    9   0.0248243  -0.0018683   0.0146503   0.0111622  -0.0012828  -0.0005862
   10   0.0633825   0.0017678   0.0111622   0.0178147   0.0004959  -0.0000722
   11   0.0046565   0.0019907  -0.0012828   0.0004959   0.0005703   0.0001807
   12  -0.0012172   0.0009419  -0.0005862  -0.0000722   0.0001807   0.0003237
   13   0.0075646  -0.0009548   0.0014296   0.0020381  -0.0001208  -0.0000707
   14  -0.0078701  -0.0018939   0.0000765  -0.0016643  -0.0004904  -0.0001439
   15  -0.0001943   0.0016976   0.0015947   0.0009492   0.0000648   0.0000916
   16  -0.0192407  -0.0006226  -0.0004692   0.0005658  -0.0011429   0.0016251
   17  -0.0237361  -0.0004560   0.0000770   0.0001501  -0.0012802   0.0017452
   18   0.0645871   0.0000202  -0.0027538   0.0016292   0.0029973  -0.0037488
   19   0.0324761  -0.0000071  -0.0003223   0.0000329   0.0017249  -0.0019825
   20   0.0249753  -0.0172260  -0.0072228  -0.0045410  -0.0035160  -0.0033123
   21   0.2189403   0.0004590   0.0234456   0.0534753   0.0022172  -0.0031240
   22   0.0694347  -0.0041025   0.0530945   0.0368778  -0.0047179   0.0003942
   23  -0.0070978  -0.0064757  -0.0004601  -0.0028178  -0.0014532  -0.0006873
   24   0.0531735   0.0007121   0.0099100   0.0154283   0.0002269  -0.0002255
   25   0.0372294  -0.0014147   0.0154836   0.0137523  -0.0010425  -0.0004804
   26   0.0045171   0.0015080  -0.0000666   0.0010932   0.0003811   0.0000695
   27  -0.0003481   0.0007512   0.0003130   0.0005608   0.0000770   0.0002581
   28  -0.0058492  -0.0006546  -0.0018155  -0.0019978  -0.0000945  -0.0000318
   29  -0.0008099  -0.0012331   0.0010471   0.0000557  -0.0003356  -0.0000851
   30  -0.0052475   0.0011959  -0.0008028  -0.0012717   0.0002409   0.0002211
   31  -0.0836133  -0.0227149   0.0132935  -0.0140797  -0.0067512  -0.0039263
   32  -0.0496339  -0.0149028   0.0066522  -0.0083770  -0.0040746  -0.0017194
   33  -0.0208239   0.0281255   0.0030125  -0.0010608   0.0029896   0.0008678
   34  -0.0120668   0.0193312   0.0023787   0.0007571   0.0021743   0.0013797
   35  -0.0145717  -0.0100556   0.0056517  -0.0063137  -0.0026944  -0.0017205
   36  -0.0193694  -0.0075711   0.0031441  -0.0051091  -0.0022115  -0.0007308
   37  -0.0079751   0.0116354   0.0022236  -0.0004247   0.0029360   0.0010459
   38  -0.0116889   0.0088860   0.0024674   0.0002705   0.0016937   0.0012617
           13          14          15          16          17          18
    1   0.0007582  -0.0002292  -0.0010790   0.0040427   0.0051443  -0.0142576
    2   0.0009532  -0.0002525  -0.0012984   0.0051444   0.0063465  -0.0169241
    3  -0.0027100   0.0006124   0.0035101  -0.0142609  -0.0169284   0.0428667
    4  -0.0022493   0.0007088   0.0034887  -0.0007888  -0.0023663   0.0113381
    5  -0.0047767  -0.0076300   0.0094414   0.0096825   0.0119776  -0.0327974
    6   0.0030298   0.0037116   0.0082072   0.0231138   0.0285515  -0.0781272
    7   0.0075646  -0.0078701  -0.0001943  -0.0192407  -0.0237361   0.0645871
    8  -0.0009548  -0.0018939   0.0016976  -0.0006226  -0.0004560   0.0000202
    9   0.0014296   0.0000765   0.0015947  -0.0004692   0.0000770  -0.0027538
   10   0.0020381  -0.0016643   0.0009492   0.0005658   0.0001501   0.0016292
   11  -0.0001208  -0.0004904   0.0000648  -0.0011429  -0.0012802   0.0029973
   12  -0.0000707  -0.0001439   0.0000916   0.0016251   0.0017452  -0.0037488
   13   0.0003860  -0.0000259  -0.0001322  -0.0003134  -0.0003776   0.0010026
   14  -0.0000259   0.0005197  -0.0001862   0.0009422   0.0010589  -0.0024908
   15  -0.0001322  -0.0001862   0.0006594   0.0012372   0.0014220  -0.0035005
   16  -0.0003134   0.0009422   0.0012372   0.3775151   0.2812931  -0.0471142
   17  -0.0003776   0.0010589   0.0014220   0.2812931   0.2139878  -0.0645407
   18   0.0010026  -0.0024908  -0.0035005  -0.0471142  -0.0645407   0.2031935
   19   0.0006985  -0.0014310  -0.0021330  -0.0468712  -0.0539740   0.1337624
   20   0.0017269   0.0032491  -0.0050244   0.0004362   0.0005666  -0.0021302
   21   0.0055303  -0.0050498   0.0012509   0.0018866   0.0024648  -0.0089125
   22   0.0056342   0.0003028   0.0052709  -0.0012553  -0.0016385   0.0059870
   23   0.0004357   0.0014071  -0.0012394   0.0008671   0.0012103  -0.0038945
   24   0.0017087  -0.0012454   0.0009248   0.0010792   0.0017267  -0.0065050
   25   0.0018569  -0.0003053   0.0014053  -0.0006855  -0.0011524   0.0044755
   26  -0.0000739  -0.0003810   0.0002537   0.0000756   0.0000301   0.0001230
   27  -0.0000201  -0.0001084   0.0002366   0.0013210   0.0018508  -0.0059555
   28  -0.0001855   0.0002411  -0.0002724   0.0007460   0.0009429  -0.0027066
   29   0.0001870   0.0002529  -0.0001265  -0.0005013  -0.0005880   0.0015461
   30  -0.0002410  -0.0001280   0.0001181  -0.0010881  -0.0013219   0.0036258
   31  -0.0003387   0.0063249   0.0001324   0.0033531   0.0044186  -0.0133765
   32   0.0001853   0.0038748  -0.0006094   0.0039957   0.0048005  -0.0126384
   33  -0.0038512  -0.0031779   0.0070617   0.0033866   0.0044741  -0.0135951
   34  -0.0022638  -0.0023516   0.0046690   0.0046945   0.0056628  -0.0150120
   35   0.0011779   0.0023038  -0.0021722  -0.0209162  -0.0259977   0.0730126
   36   0.0006381   0.0019761  -0.0012580  -0.0045860  -0.0065748   0.0221095
   37  -0.0011078  -0.0025127   0.0019508  -0.0203479  -0.0253018   0.0709641
   38  -0.0008958  -0.0015428   0.0020385  -0.0042939  -0.0062041   0.0209874
           19          20          21          22          23          24
    1  -0.0008287  -0.0100669  -0.0235709   0.0186649   0.0002017   0.0004298
    2  -0.0024137  -0.0124417  -0.0291344   0.0230106   0.0000004  -0.0001418
    3   0.0114693   0.0341515   0.0799124  -0.0624124   0.0010027   0.0030301
    4  -0.0026030   0.0177663   0.0412999  -0.0294905   0.0002238   0.0010605
    5  -0.0180411  -0.0124914  -0.0481412   0.0370493  -0.0170324  -0.0024688
    6  -0.0386402  -0.0600846   0.0050493   0.2168832  -0.0014429   0.0231284
    7   0.0324761   0.0249753   0.2189403   0.0694347  -0.0070978   0.0531735
    8  -0.0000071  -0.0172260   0.0004590  -0.0041025  -0.0064757   0.0007121
    9  -0.0003223  -0.0072228   0.0234456   0.0530945  -0.0004601   0.0099100
   10   0.0000329  -0.0045410   0.0534753   0.0368778  -0.0028178   0.0154283
   11   0.0017249  -0.0035160   0.0022172  -0.0047179  -0.0014532   0.0002269
   12  -0.0019825  -0.0033123  -0.0031240   0.0003942  -0.0006873  -0.0002255
   13   0.0006985   0.0017269   0.0055303   0.0056342   0.0004357   0.0017087
   14  -0.0014310   0.0032491  -0.0050498   0.0003028   0.0014071  -0.0012454
   15  -0.0021330  -0.0050244   0.0012509   0.0052709  -0.0012394   0.0009248
   16  -0.0468712   0.0004362   0.0018866  -0.0012553   0.0008671   0.0010792
   17  -0.0539740   0.0005666   0.0024648  -0.0016385   0.0012103   0.0017267
   18   0.1337624  -0.0021302  -0.0089125   0.0059870  -0.0038945  -0.0065050
   19   0.0920308  -0.0128914  -0.0263193   0.0217750  -0.0034415  -0.0061762
   20  -0.0128914   0.2956942  -0.0019935   0.0029813   0.0520306  -0.0085096
   21  -0.0263193  -0.0019935   0.2748984  -0.0162623  -0.0099433   0.0555440
   22   0.0217750   0.0029813  -0.0162623   0.2740056   0.0057460   0.0240458
   23  -0.0034415   0.0520306  -0.0099433   0.0057460   0.0108183  -0.0030873
   24  -0.0061762  -0.0085096   0.0555440   0.0240458  -0.0030873   0.0145639
   25   0.0048635   0.0011785   0.0241036   0.0635738   0.0005868   0.0110430
   26  -0.0003998  -0.0084437   0.0069295  -0.0041830  -0.0021231   0.0012874
   27  -0.0035662  -0.0056683   0.0005731   0.0012897  -0.0010412   0.0006592
   28  -0.0022395   0.0065034  -0.0033569  -0.0073029   0.0013158  -0.0015821
   29   0.0016206   0.0057859  -0.0043126   0.0077354   0.0015374  -0.0003462
   30   0.0033792  -0.0092241  -0.0084659   0.0002139  -0.0016310  -0.0014823
   31  -0.0095406   0.0058684  -0.0167305   0.0131284   0.0104603  -0.0065553
   32  -0.0069584   0.0064856  -0.0205232   0.0143440   0.0075688  -0.0047823
   33  -0.0107143  -0.0175983  -0.0117102   0.0077622  -0.0111961  -0.0016925
   34  -0.0087508  -0.0232973  -0.0156455   0.0162766  -0.0090545  -0.0005647
   35   0.0551173   0.1044779  -0.0858828   0.0857955   0.0223269  -0.0142245
   36   0.0187031   0.0675755  -0.0538143   0.0495178   0.0151574  -0.0088335
   37   0.0557281  -0.1554026  -0.0314774   0.0141596  -0.0282800  -0.0023174
   38   0.0198171  -0.1030462  -0.0197146   0.0124271  -0.0186495  -0.0002696
           25          26          27          28          29          30
    1  -0.0007972  -0.0010503   0.0016467  -0.0003149   0.0009731   0.0012735
    2  -0.0004242  -0.0011688   0.0017724  -0.0003815   0.0010937   0.0014654
    3  -0.0008793   0.0026989  -0.0038262   0.0010181  -0.0025727  -0.0036203
    4   0.0010060   0.0016547  -0.0019503   0.0005892  -0.0015983  -0.0021548
    5   0.0011421   0.0037109   0.0035812  -0.0021817  -0.0029690   0.0047532
    6   0.0536891  -0.0019821   0.0032336  -0.0057412   0.0047029  -0.0010908
    7   0.0372294   0.0045171  -0.0003481  -0.0058492  -0.0008099  -0.0052475
    8  -0.0014147   0.0015080   0.0007512  -0.0006546  -0.0012331   0.0011959
    9   0.0154836  -0.0000666   0.0003130  -0.0018155   0.0010471  -0.0008028
   10   0.0137523   0.0010932   0.0005608  -0.0019978   0.0000557  -0.0012717
   11  -0.0010425   0.0003811   0.0000770  -0.0000945  -0.0003356   0.0002409
   12  -0.0004804   0.0000695   0.0002581  -0.0000318  -0.0000851   0.0002211
   13   0.0018569  -0.0000739  -0.0000201  -0.0001855   0.0001870  -0.0002410
   14  -0.0003053  -0.0003810  -0.0001084   0.0002411   0.0002529  -0.0001280
   15   0.0014053   0.0002537   0.0002366  -0.0002724  -0.0001265   0.0001181
   16  -0.0006855   0.0000756   0.0013210   0.0007460  -0.0005013  -0.0010881
   17  -0.0011524   0.0000301   0.0018508   0.0009429  -0.0005880  -0.0013219
   18   0.0044755   0.0001230  -0.0059555  -0.0027066   0.0015461   0.0036258
   19   0.0048635  -0.0003998  -0.0035662  -0.0022395   0.0016206   0.0033792
   20   0.0011785  -0.0084437  -0.0056683   0.0065034   0.0057859  -0.0092241
   21   0.0241036   0.0069295   0.0005731  -0.0033569  -0.0043126  -0.0084659
   22   0.0635738  -0.0041830   0.0012897  -0.0073029   0.0077354   0.0002139
   23   0.0005868  -0.0021231  -0.0010412   0.0013158   0.0015374  -0.0016310
   24   0.0110430   0.0012874   0.0006592  -0.0015821  -0.0003462  -0.0014823
   25   0.0178615  -0.0003316   0.0001511  -0.0020855   0.0014626  -0.0008382
   26  -0.0003316   0.0005585   0.0001837  -0.0002070  -0.0004484   0.0001206
   27   0.0001511   0.0001837   0.0003378  -0.0001139  -0.0001505   0.0001066
   28  -0.0020855  -0.0002070  -0.0001139   0.0004422  -0.0000142  -0.0001662
   29   0.0014626  -0.0004484  -0.0001505  -0.0000142   0.0004543  -0.0000826
   30  -0.0008382   0.0001206   0.0001066  -0.0001662  -0.0000826   0.0006606
   31   0.0053549  -0.0026961  -0.0018254   0.0012905   0.0021549  -0.0021505
   32   0.0029910  -0.0022023  -0.0008023   0.0008589   0.0017708  -0.0010647
   33   0.0013725   0.0029339   0.0011712  -0.0011460  -0.0024232   0.0020184
   34   0.0020610   0.0018949   0.0014352  -0.0011813  -0.0014319   0.0019675
   35   0.0134534  -0.0063315  -0.0039653   0.0003304   0.0061977   0.0002538
   36   0.0070058  -0.0041302  -0.0018979   0.0007217   0.0037551  -0.0003663
   37   0.0009962   0.0038327   0.0010924  -0.0044052  -0.0019442   0.0071582
   38   0.0009638   0.0026041   0.0015607  -0.0027289  -0.0014911   0.0043608
           31          32          33          34          35          36
    1  -0.0215047  -0.0039236  -0.0196330  -0.0048700   0.0032666   0.0042935
    2  -0.0266942  -0.0058336  -0.0244472  -0.0068427   0.0043167   0.0051430
    3   0.0747399   0.0203052   0.0686930   0.0224731  -0.0130612  -0.0134647
    4   0.0541902   0.0158519   0.0569036   0.0229471  -0.0099374  -0.0081015
    5  -0.1055981  -0.0664421   0.1542526   0.1066713  -0.0058358  -0.0066038
    6   0.0890043   0.0496300   0.0257286   0.0215727   0.0162056   0.0169186
    7  -0.0836133  -0.0496339  -0.0208239  -0.0120668  -0.0145717  -0.0193694
    8  -0.0227149  -0.0149028   0.0281255   0.0193312  -0.0100556  -0.0075711
    9   0.0132935   0.0066522   0.0030125   0.0023787   0.0056517   0.0031441
   10  -0.0140797  -0.0083770  -0.0010608   0.0007571  -0.0063137  -0.0051091
   11  -0.0067512  -0.0040746   0.0029896   0.0021743  -0.0026944  -0.0022115
   12  -0.0039263  -0.0017194   0.0008678   0.0013797  -0.0017205  -0.0007308
   13  -0.0003387   0.0001853  -0.0038512  -0.0022638   0.0011779   0.0006381
   14   0.0063249   0.0038748  -0.0031779  -0.0023516   0.0023038   0.0019761
   15   0.0001324  -0.0006094   0.0070617   0.0046690  -0.0021722  -0.0012580
   16   0.0033531   0.0039957   0.0033866   0.0046945  -0.0209162  -0.0045860
   17   0.0044186   0.0048005   0.0044741   0.0056628  -0.0259977  -0.0065748
   18  -0.0133765  -0.0126384  -0.0135951  -0.0150120   0.0730126   0.0221095
   19  -0.0095406  -0.0069584  -0.0107143  -0.0087508   0.0551173   0.0187031
   20   0.0058684   0.0064856  -0.0175983  -0.0232973   0.1044779   0.0675755
   21  -0.0167305  -0.0205232  -0.0117102  -0.0156455  -0.0858828  -0.0538143
   22   0.0131284   0.0143440   0.0077622   0.0162766   0.0857955   0.0495178
   23   0.0104603   0.0075688  -0.0111961  -0.0090545   0.0223269   0.0151574
   24  -0.0065553  -0.0047823  -0.0016925  -0.0005647  -0.0142245  -0.0088335
   25   0.0053549   0.0029910   0.0013725   0.0020610   0.0134534   0.0070058
   26  -0.0026961  -0.0022023   0.0029339   0.0018949  -0.0063315  -0.0041302
   27  -0.0018254  -0.0008023   0.0011712   0.0014352  -0.0039653  -0.0018979
   28   0.0012905   0.0008589  -0.0011460  -0.0011813   0.0003304   0.0007217
   29   0.0021549   0.0017708  -0.0024232  -0.0014319   0.0061977   0.0037551
   30  -0.0021505  -0.0010647   0.0020184   0.0019675   0.0002538  -0.0003663
   31   0.1122451   0.0590049  -0.0181029  -0.0210478   0.0132231   0.0122376
   32   0.0590049   0.0336020  -0.0214161  -0.0170663   0.0122475   0.0107537
   33  -0.0181029  -0.0214161   0.1089732   0.0674753  -0.0121580  -0.0097755
   34  -0.0210478  -0.0170663   0.0674753   0.0445476  -0.0090408  -0.0065484
   35   0.0132231   0.0122475  -0.0121580  -0.0090408   0.1111586   0.0613908
   36   0.0122376   0.0107537  -0.0097755  -0.0065484   0.0613908   0.0362817
   37  -0.0121442  -0.0092273   0.0137514   0.0146137  -0.0181052  -0.0210032
   38  -0.0084580  -0.0059029   0.0147304   0.0142956  -0.0207539  -0.0165546
           37          38
    1   0.0034895   0.0044468
    2   0.0045979   0.0053825
    3  -0.0139993  -0.0143729
    4  -0.0103611  -0.0076055
    5   0.0170103   0.0224980
    6   0.0108048   0.0195745
    7  -0.0079751  -0.0116889
    8   0.0116354   0.0088860
    9   0.0022236   0.0024674
   10  -0.0004247   0.0002705
   11   0.0029360   0.0016937
   12   0.0010459   0.0012617
   13  -0.0011078  -0.0008958
   14  -0.0025127  -0.0015428
   15   0.0019508   0.0020385
   16  -0.0203479  -0.0042939
   17  -0.0253018  -0.0062041
   18   0.0709641   0.0209874
   19   0.0557281   0.0198171
   20  -0.1554026  -0.1030462
   21  -0.0314774  -0.0197146
   22   0.0141596   0.0124271
   23  -0.0282800  -0.0186495
   24  -0.0023174  -0.0002696
   25   0.0009962   0.0009638
   26   0.0038327   0.0026041
   27   0.0010924   0.0015607
   28  -0.0044052  -0.0027289
   29  -0.0019442  -0.0014911
   30   0.0071582   0.0043608
   31  -0.0121442  -0.0084580
   32  -0.0092273  -0.0059029
   33   0.0137514   0.0147304
   34   0.0146137   0.0142956
   35  -0.0181052  -0.0207539
   36  -0.0210032  -0.0165546
   37   0.1102278   0.0646098
   38   0.0646098   0.0407996
 SCF   energy in the final basis set = -81.7489856591
 Total energy in the final basis set = -81.7489856591
 
 --------------------------------------------------------------
 
                    Orbital Energies (a.u.)
 --------------------------------------------------------------
 
 Alpha MOs
 -- Occupied --
-10.327 -10.326  -1.069  -0.891  -0.767  -0.708  -0.654  -0.542
 -- Virtual --
 -0.055   0.108   0.113   0.156   0.221   0.235   0.269   0.285
  0.289   0.378   0.490   0.503   0.528   0.861   0.936   0.948
  1.050   1.298   1.336   1.395   1.662   1.753   1.842   1.932
  2.192   2.203   2.405   2.563  22.411  22.776
 --------------------------------------------------------------
 
          Ground-State Mulliken Net Atomic Charges

     Atom                 Charge (a.u.)
  ----------------------------------------
      1 C                    -0.382850
      2 C                    -0.383372
      3 H                     0.205922
      4 H                     0.176404
      5 H                     0.196968
      6 H                     0.186929
  ----------------------------------------
  Sum of atomic charges =    -0.000000

 -----------------------------------------------------------------
                    Cartesian Multipole Moments
 -----------------------------------------------------------------
    Charge (ESU x 10^10)
                -0.0000
    Dipole Moment (Debye)
         X      -0.0188      Y      -0.0283      Z      -0.0363
       Tot       0.0497
    Quadrupole Moments (Debye-Ang)
        XX     -12.3674     XY      -1.1336     YY     -13.7193
        XZ      -1.1382     YZ      -2.5824     ZZ     -13.3312
    Octopole Moments (Debye-Ang^2)
       XXX   -1125.9243    XXY    -246.1502    XYY    -439.9376
       YYY    -718.2450    XXZ     -76.7472    XYZ     -81.6317
       YYZ    -128.2274    XZZ    -424.5351    YZZ    -255.4456
       ZZZ    -145.0208
    Hexadecapole Moments (Debye-Ang^3)
      XXXX  -70619.5608   XXXY  -21011.7184   XXYY  -17793.4177
      XYYY  -22926.6560   YYYY  -25745.9406   XXXZ   -5046.1200
      XXYZ   -3323.6641   XYYZ   -4068.6542   YYYZ   -4634.5930
      XXZZ  -13680.5478   XYZZ   -8136.6087   YYZZ   -5062.4325
      XZZZ   -4615.1591   YZZZ   -2694.3610   ZZZZ   -1093.1048
 -----------------------------------------------------------------
Archival summary:
1\1\q51\SP\ProcedureUnspecified\BasisUnspecified\24\junyiwan\ThuJun300:43:412021ThuJun300:43:412021\0\\#,ProcedureUnspecified,BasisUnspecified,\\0,1\C\H,1,1.06937\H,1,1.08835,2,117.841\C,1,1.3545,2,121.446,3,179.361,0\H,4,1.04691,1,121.403,2,-176.546,0\H,4,1.11607,1,121.215,2,7.89434,0\\\@

 Total job time:  1.47s(wall), 1.35s(cpu) 
 Thu Jun  3 00:43:41 2021

        *************************************************************
        *                                                           *
        *  Thank you very much for using Q-Chem.  Have a nice day.  *
        *                                                           *
        *************************************************************


Copy Fragment Subsystem from /scratch/junyiwang/qchem/qchem305001/Frg1s1/
Copy MO Coefficient from /scratch/junyiwang/qchem/qchem305001/Frg1s1/
Alpha electrons: 8
 Beta electrons: 8

-----------------------------------------------------------------
 SCF on fragment 2 out of 2 in state 1
-----------------------------------------------------------------

/opt/qchem/cvs/bin/xr.csh /scratch/junyiwang/qchem/qchem305001/Frg2s1.input  stdout  Frg2s1
/opt/qchem/cvs/bin/xr.csh /scratch/junyiwang/qchem/qchem305001/Frg2s1.input stdout Frg2s1
QCSCRATCH is /scratch/junyiwang/qchem/qchem305001/Frg2s1
QCFILEPREF is /scratch/junyiwang/qchem/qchem305001/Frg2s1/
-- Serial fragment SCF job
qcprog.exe.5.release /scratch/junyiwang/qchem/qchem305001/Frg2s1.input /scratch/junyiwang/qchem/qchem305001/Frg2s1/
q51 192.168.0
Q-Chem Developer Version! Running on 192.168.0.*
                  Welcome to Q-Chem
     A Quantum Leap Into The Future Of Chemistry


 Q-Chem 5.0, Q-Chem, Inc., Pleasanton, CA (2017)

 Yihan Shao,  Zhengting Gan,  E. Epifanovsky,  A. T. B. Gilbert,  M. Wormit,  
 J. Kussmann,  A. W. Lange,  A. Behn,  Jia Deng,  Xintian Feng,  D. Ghosh,  
 M. Goldey,  P. R. Horn,  L. D. Jacobson,  I. Kaliman,  T. Kus,  A. Landau,  
 Jie Liu,  E. I. Proynov,  R. M. Richard,  R. P. Steele,  E. J. Sundstrom,  
 H. L. Woodcock III,  P. M. Zimmerman,  D. Zuev,  B. Albrecht,  E. Alguire,  
 S. A. Baeppler,  Z. Benda,  Y. A. Bernard,  E. J. Berquist,  K. B. Bravaya,  
 D. Casanova,  Chun-Min Chang,  Yunqing Chen,  A. Chien,  K. D. Closser,  
 M. P. Coons,  S. Dasgupta,  M. Diedenhofen,  Hainam Do,  R. G. Edgar,  
 Po-Tung Fang,  S. Fatehi,  Qingguo Feng,  Qinghui Ge,  A. Ghysels,  
 J. Gomes,  J. Gonthier,  A. Gunina,  M. W. D. Hanson-Heine,  
 P. H. P. Harbach,  A. W. Hauser,  J. E. Herr,  E. G. Hohenstein,  
 Z. C. Holden,  Kerwin Hui,  T.-C. Jagau,  Hyunjun Ji,  B. Kaduk,  
 K. Khistyaev,  Jaehoon Kim,  P. Klunzinger,  K. Koh,  D. Kosenkov,  
 T. Kowalczyk,  C. M. Krauter,  A. Kunitsa,  Ka Un Lao,  A. Laurent,  
 K. V. Lawler,  Joonho Lee,  D. Lefrancois,  S. Lehtola,  D. S. Levine,  
 Yi-Pei Li,  You-Sheng Lin,  Fenglai Liu,  E. Livshits,  A. Luenser,  
 P. Manohar,  E. Mansoor,  S. F. Manzer,  Shan-Ping Mao,  Yuezhi Mao,  
 N. Mardirossian,  A. V. Marenich,  L. A. Martinez-Martinez,  S. A. Maurer,  
 N. J. Mayhall,  S. C. McKenzie,  J.-M. Mewes,  A. F. Morrison,  K. Nanda,  
 T. S. Nguyen-Beck,  R. Olivares-Amaya,  J. A. Parkhill,  T. M. Perrine,  
 F. Plasser,  S. Prager,  A. Prociuk,  D. R. Rehn,  F. Rob,  M. Schneider,  
 N. Sergueev,  S. M. Sharada,  S. Sharma,  D. W. Small,  T. Stauch,  
 T. Stein,  Yu-Chuan Su,  A. J. W. Thom,  T. Tsuchimochi,  L. Vogt,  
 O. Vydrov,  M. A. Watson,  J. Wenzel,  M. de Wergifosse,  T. A. Wesolowski,  
 A. White,  J. Witte,  A. Yamada,  Jun Yang,  K. Yao,  S. Yeganeh,  
 S. R. Yost,  Zhi-Qiang You,  A. Zech,  Igor Ying Zhang,  Xing Zhang,  
 Yan Zhao,  Ying Zhu,  B. R. Brooks,  G. K. L. Chan,  C. J. Cramer,  
 M. S. Gordon,  W. J. Hehre,  A. Klamt,  M. W. Schmidt,  C. D. Sherrill,  
 D. G. Truhlar,  A. Aspuru-Guzik,  R. Baer,  A. T. Bell,  N. A. Besley,  
 Jeng-Da Chai,  A. Dreuw,  B. D. Dunietz,  T. R. Furlani,  Chao-Ping Hsu,  
 Yousung Jung,  Jing Kong,  D. S. Lambrecht,  WanZhen Liang,  C. Ochsenfeld,  
 V. A. Rassolov,  L. V. Slipchenko,  J. E. Subotnik,  T. Van Voorhis,  
 J. M. Herbert,  A. I. Krylov,  P. M. W. Gill,  M. Head-Gordon

 Contributors to earlier versions of Q-Chem not listed above: 
 R. D. Adamson,  B. Austin,  J. Baker,  G. J. O. Beran,  K. Brandhorst,  
 S. T. Brown,  E. F. C. Byrd,  A. K. Chakraborty,  C.-L. Cheng,  
 Siu Hung Chien,  D. M. Chipman,  D. L. Crittenden,  H. Dachsel,  
 R. A. DiStasio Jr.,  R. J. Doerksen,  A. D. Dutoi,  L. Fusti-Molnar,  
 W. A. Goddard III,  A. Golubeva-Zadorozhnaya,  S. R. Gwaltney,  G. Hawkins,  
 A. Heyden,  S. Hirata,  G. Kedziora,  F. J. Keil,  C. Kelley,  Jihan Kim,  
 R. A. King,  R. Z. Khaliullin,  P. P. Korambath,  W. Kurlancheek,  
 A. M. Lee,  M. S. Lee,  S. V. Levchenko,  Ching Yeh Lin,  D. Liotard,  
 R. C. Lochan,  I. Lotan,  P. E. Maslen,  N. Nair,  D. P. O'Neill,  
 D. Neuhauser,  E. Neuscamman,  C. M. Oana,  R. Olson,  B. Peters,  
 R. Peverati,  P. A. Pieniazek,  Y. M. Rhee,  J. Ritchie,  M. A. Rohrdanz,  
 E. Rosta,  N. J. Russ,  H. F. Schaefer III,  N. E. Schultz,  N. Shenvi,  
 A. C. Simmonett,  A. Sodt,  D. Stuck,  K. S. Thanthiriwatte,  V. Vanovschi,  
 Tao Wang,  A. Warshel,  C. F. Williams,  Q. Wu,  X. Xu,  W. Zhang

 Please cite Q-Chem as follows:
 Y. Shao et al., Mol. Phys. 113, 184-215 (2015)
 DOI: 10.1080/00268976.2014.952696

 Q-Chem 5.0.0 for Intel X86 EM64T Linux

 Parts of Q-Chem use Armadillo 5.200.1 (Boston Tea Smuggler).
 http://arma.sourceforge.net/

 Q-Chem begins on Thu Jun  3 00:43:41 2021  

Host: q51
0

     Scratch files written to /scratch/junyiwang/qchem/qchem305001/Frg2s1//

Checking the input file for inconsistencies... 	...done.

--------------------------------------------------------------
User input:
--------------------------------------------------------------
$molecule
0 1
 6	25.1950312000	5.4835099000	23.2523656000
 6	25.3026819000	5.7128525000	21.9405818000
 1	26.0881257000	5.3210348000	23.8717365000
 1	24.2439175000	5.4128242000	23.7472582000
 1	24.4005251000	5.8669716000	21.3527584000
 1	26.2846470000	5.7342005000	21.4722753000
$end

$rem
METHOD		BLYP
BASIS		DZ*
LRC_DFT		TRUE
OMEGA		410
MAX_SCF_CYCLES		200
SCF_PRINT_FRGM		TRUE
SCF_FINAL_PRINT		2
SYM_IGNORE		TRUE
SCF_CONVERGENCE		5
!required keywords
JOBTYPE		SP
SYM_IGNORE		TRUE
SUBSYSTEM		TRUE
SAVE_SUBSYSTEM		TRUE
$end
--------------------------------------------------------------
 ----------------------------------------------------------------
             Standard Nuclear Orientation (Angstroms)
    I     Atom           X                Y                Z
 ----------------------------------------------------------------
    1      C      25.1950312000     5.4835099000    23.2523656000
    2      C      25.3026819000     5.7128525000    21.9405818000
    3      H      26.0881257000     5.3210348000    23.8717365000
    4      H      24.2439175000     5.4128242000    23.7472582000
    5      H      24.4005251000     5.8669716000    21.3527584000
    6      H      26.2846470000     5.7342005000    21.4722753000
 ----------------------------------------------------------------
 Nuclear Repulsion Energy =    33.3069108723 hartrees
 There are        8 alpha and        8 beta electrons
 Requested basis set is DZ(d)
 There are 22 shells and 38 basis functions

 Total QAlloc Memory Limit   2000 MB
 Mega-Array Size        61 MB
 MEM_STATIC part        62 MB

                       Distance Matrix (Angstroms)
             C (  1)   C (  2)   H (  3)   H (  4)   H (  5)
   C (  2)  1.336025
   H (  3)  1.098925  2.121274
   H (  4)  1.074492  2.115438  1.850682
   H (  5)  2.094467  1.087739  3.080794  2.442213
   H (  6)  2.102101  1.088128  2.442691  3.073013  1.892572
 
 A cutoff of  1.0D-08 yielded    253 shell pairs
 There are       773 function pairs (       862 Cartesian)
 Smallest overlap matrix eigenvalue = 4.25E-03

 Scale SEOQF with 1.000000e-03/1.000000e-02/1.000000e-03

 Standard Electronic Orientation quadrupole field applied
 Nucleus-field energy     =    -0.0000000015 hartrees
 Guess from superposition of atomic densities
 Warning:  Energy on first SCF cycle will be non-variational
 Overlap Matrix
            1           2           3           4           5           6
    1   1.0000000   0.8444081   0.3324251   0.1580343   0.0000000  -0.0000000
    2   0.8444081   1.0000000   0.4262148   0.1940327   0.0000000   0.0000000
    3   0.3324251   0.4262148   1.0000000   0.7826642   0.0000000   0.0000000
    4   0.1580343   0.1940327   0.7826642   1.0000000   0.0000000   0.0000000
    5   0.0000000   0.0000000   0.0000000   0.0000000   1.0000000   0.0000000
    6  -0.0000000   0.0000000   0.0000000   0.0000000   0.0000000   1.0000000
    7   0.0000000  -0.0000000   0.0000000   0.0000000   0.0000000   0.0000000
    8   0.0000000   0.0000000   0.0000000   0.0000000   0.5387949   0.0000000
    9   0.0000000   0.0000000   0.0000000   0.0000000   0.0000000   0.5387949
   10  -0.0000000  -0.0000000   0.0000000   0.0000000   0.0000000   0.0000000
   11   0.0000000   0.0000000   0.0000000   0.0000000   0.0000000  -0.0000000
   12   0.0000000   0.0000000   0.0000000   0.0000000   0.0000000   0.0000000
   13   0.0000000   0.0000000   0.0000000   0.0000000   0.0000000  -0.0000000
   14   0.0000000   0.0000000   0.0000000   0.0000000   0.0000000   0.0000000
   15   0.0000000   0.0000000  -0.0000000  -0.0000000  -0.0000000  -0.0000000
   16   0.0001143   0.0000236   0.0212923   0.0622065   0.0051716   0.0110178
   17   0.0000236   0.0000001   0.0238106   0.0751223   0.0061927   0.0131931
   18   0.0212923   0.0238106   0.2056779   0.3709898   0.0287729   0.0612986
   19   0.0622065   0.0751223   0.3709898   0.6134945   0.0252976   0.0538949
   20  -0.0051716  -0.0061927  -0.0287729  -0.0252976   0.1932186  -0.0076025
   21  -0.0110178  -0.0131931  -0.0612986  -0.0538949  -0.0076025   0.1805905
   22   0.0630194   0.0754616   0.3506132   0.3082657   0.0434845   0.0926409
   23  -0.0084893  -0.0103996  -0.0426481  -0.0510742   0.3009672  -0.0048139
   24  -0.0180859  -0.0221558  -0.0908590  -0.1088101  -0.0048139   0.2929711
   25   0.1034470   0.1267255   0.5196912   0.6223673   0.0275342   0.0586598
   26   0.0014204   0.0016890   0.0060544   0.0022016  -0.0369411  -0.0157751
   27  -0.0173078  -0.0205810  -0.0737765  -0.0268274  -0.0114780   0.1922286
   28   0.0560897   0.0666971   0.2390884   0.0869400   0.0474631   0.1011170
   29  -0.0081241  -0.0096605  -0.0346298  -0.0125925   0.2112940  -0.0114780
   30  -0.0011796  -0.0014027  -0.0050283  -0.0018285  -0.0185641   0.0362164
   31   0.0300360   0.0337861   0.2615770   0.3694082   0.3454971  -0.0628541
   32   0.0844848   0.1026324   0.4705632   0.6984532   0.2928305  -0.0532728
   33   0.0333210   0.0377352   0.2766115   0.3783653  -0.3888474  -0.0288987
   34   0.0872237   0.1060287   0.4823802   0.7094367  -0.3194013  -0.0237375
   35   0.0000819   0.0000467   0.0098981   0.0882546  -0.0163749   0.0079032
   36   0.0125432   0.0146159   0.1066013   0.2744472  -0.0630374   0.0304245
   37   0.0000773   0.0000437   0.0095810   0.0869925   0.0218437   0.0050256
   38   0.0123047   0.0143316   0.1050180   0.2718757   0.0852343   0.0196101
            7           8           9          10          11          12
    1   0.0000000   0.0000000   0.0000000  -0.0000000   0.0000000   0.0000000
    2  -0.0000000   0.0000000   0.0000000  -0.0000000   0.0000000   0.0000000
    3   0.0000000   0.0000000   0.0000000   0.0000000   0.0000000   0.0000000
    4   0.0000000   0.0000000   0.0000000   0.0000000   0.0000000   0.0000000
    5   0.0000000   0.5387949   0.0000000   0.0000000   0.0000000   0.0000000
    6   0.0000000   0.0000000   0.5387949   0.0000000  -0.0000000   0.0000000
    7   1.0000000   0.0000000   0.0000000   0.5387949   0.0000000   0.0000000
    8   0.0000000   1.0000000   0.0000000   0.0000000   0.0000000   0.0000000
    9   0.0000000   0.0000000   1.0000000   0.0000000  -0.0000000   0.0000000
   10   0.5387949   0.0000000   0.0000000   1.0000000   0.0000000   0.0000000
   11   0.0000000   0.0000000  -0.0000000   0.0000000   1.0000000   0.0000000
   12   0.0000000   0.0000000   0.0000000   0.0000000   0.0000000   1.0000000
   13   0.0000000   0.0000000   0.0000000   0.0000000   0.0000000   0.0000000
   14  -0.0000000   0.0000000   0.0000000  -0.0000000   0.0000000   0.0000000
   15   0.0000000  -0.0000000   0.0000000   0.0000000   0.0000000   0.0000000
   16  -0.0630194   0.0084893   0.0180859  -0.1034470   0.0014204  -0.0173078
   17  -0.0754616   0.0103996   0.0221558  -0.1267255   0.0016890  -0.0205810
   18  -0.3506132   0.0426481   0.0908590  -0.5196912   0.0060544  -0.0737765
   19  -0.3082657   0.0510742   0.1088101  -0.6223673   0.0022016  -0.0268274
   20   0.0434845   0.3009672  -0.0048139   0.0275342   0.0369411   0.0114780
   21   0.0926409  -0.0048139   0.2929711   0.0586598   0.0157751  -0.1922286
   22  -0.3330962   0.0275342   0.0586598  -0.0322929   0.0114780  -0.1019822
   23   0.0275342   0.6907366  -0.0070123   0.0401087   0.0198323   0.0020049
   24   0.0586598  -0.0070123   0.6790889   0.0854489   0.0090358  -0.1101058
   25  -0.0322929   0.0401087   0.0854489   0.2052813   0.0020049  -0.0044343
   26  -0.0114780  -0.0198323  -0.0090358  -0.0020049   0.0762528   0.0297637
   27   0.1019822  -0.0020049   0.1101058   0.0044343   0.0297637  -0.2839921
   28  -0.2030608   0.0119166   0.0253875   0.0528969   0.0228100  -0.1501153
   29   0.0478692   0.1134361  -0.0020049   0.0020814   0.0715162   0.0218580
   30   0.0095327  -0.0095229   0.0197057   0.0016651  -0.0003326  -0.0697537
   31   0.2396061   0.3526191  -0.0641498   0.2445453  -0.0739816  -0.0513070
   32   0.2030812   0.4962725  -0.0902838   0.3441705  -0.0214144  -0.0148511
[...]
    6   0.0000000  -0.0000000   0.0000000  -0.0000000   0.0000000   0.0000000
    7  -0.0000000   0.0000000  -0.0000000   0.0000000  -0.0000000  -0.0000000
    8  -0.0000000   0.0000000  -0.0000000   0.0000000  -0.0000000  -0.0000000
    9  -0.0000000  -0.0000000   0.0000000  -0.0000000   0.0000000   0.0000000
   10  -0.0000000   0.0000000  -0.0000000   0.0000000   0.0000000  -0.0000000
   11  -0.0000000   0.0000000  -0.0000000   0.0000000  -0.0000000  -0.0000000
   12   0.0000000  -0.0000000  -0.0000000   0.0000000  -0.0000000  -0.0000000
   13   0.0000000  -0.0000000   0.0000000  -0.0000000   0.0000000   0.0000000
   14   0.0000000  -0.0000000   0.0000000  -0.0000000   0.0000000   0.0000000
   15  -0.0000000   0.0000000  -0.0000000   0.0000000  -0.0000000  -0.0000000
   16  -0.0000000  -0.0000000   0.0000000  -0.0000000   0.0000000   0.0000000
   17  -0.0000000  -0.0000000   0.0000000  -0.0000000   0.0000000   0.0000000
   18  -0.0000000   0.0000000   0.0000000  -0.0000000  -0.0000000   0.0000000
   19  -0.0000000  -0.0000000   0.0000000  -0.0000000  -0.0000000   0.0000000
   20  -0.0000000   0.0000000  -0.0000000  -0.0000000  -0.0000000  -0.0000000
   21  -0.0000000   0.0000000  -0.0000000   0.0000000  -0.0000000  -0.0000000
   22   0.0000000  -0.0000000   0.0000000  -0.0000000   0.0000000   0.0000000
   23  -0.0000000   0.0000000   0.0000000  -0.0000000  -0.0000000   0.0000000
   24  -0.0000000   0.0000000  -0.0000000   0.0000000   0.0000000  -0.0000000
   25  -0.0000000  -0.0000000   0.0000000  -0.0000000   0.0000000   0.0000000
   26  -0.0000000  -0.0000000  -0.0000000   0.0000000  -0.0000000  -0.0000000
   27   0.0000000  -0.0000000  -0.0000000   0.0000000   0.0000000  -0.0000000
   28  -0.0000000   0.0000000  -0.0000000  -0.0000000  -0.0000000  -0.0000000
   29   0.0000000  -0.0000000   0.0000000  -0.0000000   0.0000000   0.0000000
   30   0.0000000  -0.0000000   0.0000000   0.0000000   0.0000000  -0.0000000
   31  -0.0000000  -0.0000000   0.0000000  -0.0000000   0.0000000   0.0000000
   32   0.0000000  -0.0000000   0.0000000  -0.0000000   0.0000000   0.0000000
   33  -0.0000000   0.0000000  -0.0000000   0.0000000  -0.0000000  -0.0000000
   34  -0.0000000   0.0000000  -0.0000000   0.0000000  -0.0000000  -0.0000000
   35  -0.0000000   0.0000000   0.0000000  -0.0000000  -0.0000000   0.0000000
   36  -0.0000000   0.0000000   0.0000000  -0.0000000   0.0000000   0.0000000
   37   0.0000000  -0.0000000   0.0000000   0.0000000   0.0000000   0.0000000
   38   0.0000000  -0.0000000   0.0000000   0.0000000   0.0000000   0.0000000
   39  -0.0002371  -0.0002893   0.0008160  -0.0001263   0.0006610  -0.0024846
   40  -0.0002135  -0.0002046   0.0001182  -0.0001498   0.0007137  -0.0027466
   41   0.0003323   0.0000371   0.0030381   0.0003876  -0.0015358   0.0062348
   42   0.0003006   0.0005863   0.0005286   0.0002448  -0.0007761   0.0035234
   43  -0.0190719   0.0039618   0.0004978  -0.0013993  -0.0003200   0.0016342
   44   0.0048201   0.0791676   0.0178251  -0.0007503   0.0094660   0.0042367
   45   0.0026210   0.0189607  -0.0183706  -0.0007170   0.0033997  -0.0061211
   46  -0.0074112   0.0014422  -0.0000925  -0.0004424  -0.0000765   0.0004125
   47   0.0018378   0.0255148   0.0050189  -0.0002461   0.0031199   0.0010691
   48   0.0000820   0.0054007  -0.0020789  -0.0001747   0.0006375  -0.0003552
   49   0.0005055   0.0001915   0.0001334   0.0000264   0.0000393  -0.0000043
   50   0.0000228  -0.0030633  -0.0005522   0.0000439  -0.0003397  -0.0002101
   51  -0.0004459  -0.0010428   0.0002871  -0.0000025  -0.0002135   0.0002519
   52  -0.0026459   0.0000158  -0.0003109  -0.0001482  -0.0000752   0.0000598
   53   0.0003018  -0.0004366  -0.0005971   0.0000187  -0.0000599  -0.0000313
   54  -0.0000521  -0.0002201   0.0014199   0.0002420   0.0004084  -0.0001969
   55  -0.0001039  -0.0003736   0.0023310   0.0003048   0.0005860  -0.0004543
   56   0.0004958   0.0014717  -0.0089499  -0.0008737  -0.0019180   0.0019797
   57   0.0007250   0.0016872  -0.0088690  -0.0007299  -0.0010427   0.0000722
   58   0.0556504   0.0016389   0.0022844   0.0023256   0.0019044  -0.0022939
   59   0.0012503   0.0813658   0.0086489  -0.0013124   0.0099185   0.0014969
   60   0.0013426   0.0084807   0.0319785   0.0013794   0.0003900   0.0102784
   61   0.0119735   0.0007770   0.0006918   0.0005395   0.0004567  -0.0004276
   62   0.0007770   0.0258281   0.0037662  -0.0003552   0.0031133   0.0008608
   63   0.0006918   0.0037662   0.0044871   0.0001633   0.0005229   0.0009934
   64   0.0005395  -0.0003552   0.0001633   0.0000419  -0.0000207   0.0000085
   65   0.0004567   0.0031133   0.0005229  -0.0000207   0.0004151   0.0000309
   66  -0.0004276   0.0008608   0.0009934   0.0000085   0.0000309   0.0004513
   67  -0.0034649   0.0003132  -0.0004257  -0.0001830  -0.0000633   0.0000503
   68   0.0004419   0.0007444  -0.0010795  -0.0000632   0.0000525  -0.0002264
   69  -0.0111304   0.0013504  -0.0058546  -0.0007911  -0.0004785   0.0007913
   70  -0.0088260   0.0009769  -0.0044974  -0.0006433  -0.0001608  -0.0002275
   71   0.0127889   0.0001141  -0.0038645   0.0007922   0.0002138  -0.0002885
   72   0.0095308   0.0004128  -0.0025669   0.0005194   0.0004058  -0.0009568
   73  -0.0258461   0.0034368  -0.0128363  -0.0019053  -0.0009057  -0.0011316
   74  -0.0172088   0.0019619  -0.0076809  -0.0011745  -0.0003800  -0.0010508
   75   0.0277995   0.0003435  -0.0090865   0.0005670   0.0003324  -0.0028176
   76   0.0183300   0.0003253  -0.0049019   0.0004879   0.0004925  -0.0021184
           67          68          69          70          71          72
    1   0.0000000  -0.0000000   0.0000000  -0.0000000  -0.0000000   0.0000000
    2   0.0000000  -0.0000000   0.0000000  -0.0000000  -0.0000000   0.0000000
    3  -0.0000000   0.0000000   0.0000000   0.0000000  -0.0000000  -0.0000000
    4  -0.0000000   0.0000000   0.0000000   0.0000000   0.0000000  -0.0000000
    5   0.0000000  -0.0000000   0.0000000   0.0000000  -0.0000000  -0.0000000
    6  -0.0000000   0.0000000  -0.0000000  -0.0000000  -0.0000000   0.0000000
    7   0.0000000  -0.0000000   0.0000000   0.0000000   0.0000000  -0.0000000
    8   0.0000000  -0.0000000   0.0000000  -0.0000000  -0.0000000  -0.0000000
    9  -0.0000000   0.0000000   0.0000000  -0.0000000  -0.0000000   0.0000000
   10   0.0000000  -0.0000000   0.0000000   0.0000000   0.0000000  -0.0000000
   11   0.0000000  -0.0000000   0.0000000   0.0000000   0.0000000  -0.0000000
   12   0.0000000  -0.0000000  -0.0000000  -0.0000000  -0.0000000   0.0000000
   13  -0.0000000   0.0000000  -0.0000000  -0.0000000   0.0000000   0.0000000
   14  -0.0000000   0.0000000  -0.0000000  -0.0000000  -0.0000000   0.0000000
   15   0.0000000  -0.0000000   0.0000000  -0.0000000  -0.0000000  -0.0000000
   16   0.0000000   0.0000000  -0.0000000   0.0000000  -0.0000000   0.0000000
   17   0.0000000   0.0000000  -0.0000000   0.0000000  -0.0000000   0.0000000
   18  -0.0000000   0.0000000   0.0000000  -0.0000000   0.0000000   0.0000000
   19  -0.0000000   0.0000000   0.0000000  -0.0000000   0.0000000   0.0000000
   20   0.0000000  -0.0000000   0.0000000   0.0000000  -0.0000000  -0.0000000
   21  -0.0000000   0.0000000  -0.0000000  -0.0000000   0.0000000  -0.0000000
   22  -0.0000000  -0.0000000   0.0000000   0.0000000  -0.0000000   0.0000000
   23   0.0000000  -0.0000000   0.0000000   0.0000000  -0.0000000  -0.0000000
   24  -0.0000000   0.0000000  -0.0000000  -0.0000000  -0.0000000  -0.0000000
   25  -0.0000000  -0.0000000   0.0000000  -0.0000000  -0.0000000   0.0000000
   26   0.0000000   0.0000000  -0.0000000  -0.0000000   0.0000000  -0.0000000
   27   0.0000000  -0.0000000  -0.0000000  -0.0000000  -0.0000000   0.0000000
   28   0.0000000  -0.0000000   0.0000000   0.0000000  -0.0000000  -0.0000000
   29  -0.0000000  -0.0000000   0.0000000   0.0000000  -0.0000000   0.0000000
   30   0.0000000   0.0000000  -0.0000000  -0.0000000   0.0000000   0.0000000
   31  -0.0000000   0.0000000  -0.0000000  -0.0000000   0.0000000   0.0000000
   32  -0.0000000   0.0000000  -0.0000000  -0.0000000  -0.0000000   0.0000000
   33   0.0000000  -0.0000000   0.0000000   0.0000000  -0.0000000  -0.0000000
   34   0.0000000  -0.0000000   0.0000000   0.0000000  -0.0000000  -0.0000000
   35   0.0000000  -0.0000000   0.0000000   0.0000000  -0.0000000   0.0000000
   36   0.0000000  -0.0000000   0.0000000   0.0000000  -0.0000000   0.0000000
   37  -0.0000000   0.0000000  -0.0000000  -0.0000000   0.0000000   0.0000000
   38  -0.0000000   0.0000000  -0.0000000  -0.0000000   0.0000000   0.0000000
   39   0.0003906   0.0005444  -0.0199337  -0.0045980  -0.0207745  -0.0043337
   40   0.0004403   0.0006840  -0.0248017  -0.0065612  -0.0258250  -0.0062717
   41  -0.0010471  -0.0019259   0.0695924   0.0219478   0.0724926   0.0213543
   42  -0.0005232  -0.0014178   0.0555356   0.0208773   0.0551801   0.0184732
   43   0.0080103  -0.0008616   0.1303069   0.0877617  -0.1425624  -0.0918369
   44  -0.0004037   0.0013221  -0.0229869  -0.0155261  -0.0082919  -0.0034540
   45   0.0017265   0.0026751   0.0881598   0.0589119   0.0715657   0.0433643
   46   0.0025965  -0.0002691   0.0261092   0.0181324  -0.0283472  -0.0186422
   47  -0.0001208   0.0004641  -0.0039603  -0.0026047  -0.0004355   0.0003726
   48   0.0003308   0.0006595   0.0130237   0.0078097   0.0091287   0.0046349
   49  -0.0001725   0.0000201  -0.0020575  -0.0013636   0.0012128   0.0008899
   50  -0.0000588  -0.0000656  -0.0009978  -0.0004001   0.0000047   0.0002471
   51   0.0000620  -0.0000164  -0.0006770  -0.0007536  -0.0025486  -0.0019339
   52   0.0008970  -0.0000846   0.0082822   0.0057978  -0.0075345  -0.0050600
   53  -0.0000783  -0.0000007   0.0039570   0.0018327   0.0054579   0.0026194
   54  -0.0000560  -0.0019164   0.0033661   0.0044743   0.0033832   0.0042541
   55  -0.0000408  -0.0024518   0.0044419   0.0054012   0.0044573   0.0050912
   56   0.0000111   0.0071668  -0.0133799  -0.0142299  -0.0132680  -0.0131512
   57   0.0002078   0.0057469  -0.0104843  -0.0081502  -0.0095472  -0.0069766
   58  -0.0151577   0.0021084  -0.0113396  -0.0134742   0.0139834   0.0167874
   59   0.0015902   0.0031820   0.0033113   0.0048660   0.0018461   0.0040654
   60  -0.0029114  -0.0085886  -0.0190880  -0.0273910  -0.0172648  -0.0227085
   61  -0.0034649   0.0004419  -0.0111304  -0.0088260   0.0127889   0.0095308
   62   0.0003132   0.0007444   0.0013504   0.0009769   0.0001141   0.0004128
   63  -0.0004257  -0.0010795  -0.0058546  -0.0044974  -0.0038645  -0.0025669
   64  -0.0001830  -0.0000632  -0.0007911  -0.0006433   0.0007922   0.0005194
   65  -0.0000633   0.0000525  -0.0004785  -0.0001608   0.0002138   0.0004058
   66   0.0000503  -0.0002264   0.0007913  -0.0002275  -0.0002885  -0.0009568
   67   0.0010643  -0.0000294   0.0046334   0.0036157  -0.0046347  -0.0032347
   68  -0.0000294   0.0005391  -0.0003923  -0.0000280   0.0004414   0.0005607
   69   0.0046334  -0.0003923   0.1100469   0.0659701  -0.0182364  -0.0216344
   70   0.0036157  -0.0000280   0.0659701   0.0422091  -0.0213384  -0.0174163
   71  -0.0046347   0.0004414  -0.0182364  -0.0213384   0.1110710   0.0625108
   72  -0.0032347   0.0005607  -0.0216344  -0.0174163   0.0625108   0.0378316
   73   0.0081331   0.0042089   0.0139019   0.0145328  -0.0126777  -0.0096879
   74   0.0054755   0.0019403   0.0146025   0.0138573  -0.0091329  -0.0063027
   75  -0.0070708   0.0055240  -0.0128932  -0.0099696   0.0136847   0.0136594
   76  -0.0047306   0.0028009  -0.0097763  -0.0066941   0.0134271   0.0124241
           73          74          75          76
    1  -0.0000000   0.0000000   0.0000000  -0.0000000
    2  -0.0000000   0.0000000  -0.0000000  -0.0000000
    3  -0.0000000  -0.0000000   0.0000000   0.0000000
    4   0.0000000  -0.0000000   0.0000000   0.0000000
    5   0.0000000   0.0000000   0.0000000   0.0000000
    6  -0.0000000   0.0000000  -0.0000000   0.0000000
    7   0.0000000  -0.0000000   0.0000000   0.0000000
    8  -0.0000000  -0.0000000   0.0000000   0.0000000
    9  -0.0000000  -0.0000000  -0.0000000   0.0000000
   10   0.0000000  -0.0000000   0.0000000   0.0000000
   11   0.0000000   0.0000000   0.0000000   0.0000000
   12  -0.0000000   0.0000000   0.0000000  -0.0000000
   13   0.0000000   0.0000000  -0.0000000  -0.0000000
   14  -0.0000000  -0.0000000  -0.0000000  -0.0000000
   15  -0.0000000  -0.0000000   0.0000000   0.0000000
   16  -0.0000000  -0.0000000   0.0000000   0.0000000
   17   0.0000000  -0.0000000  -0.0000000   0.0000000
   18  -0.0000000  -0.0000000   0.0000000   0.0000000
   19   0.0000000   0.0000000  -0.0000000   0.0000000
   20   0.0000000  -0.0000000   0.0000000   0.0000000
   21  -0.0000000  -0.0000000  -0.0000000   0.0000000
   22  -0.0000000   0.0000000   0.0000000   0.0000000
   23  -0.0000000  -0.0000000   0.0000000   0.0000000
   24  -0.0000000  -0.0000000  -0.0000000   0.0000000
   25  -0.0000000   0.0000000   0.0000000   0.0000000
   26   0.0000000  -0.0000000  -0.0000000   0.0000000
   27   0.0000000   0.0000000  -0.0000000  -0.0000000
   28   0.0000000  -0.0000000   0.0000000   0.0000000
   29  -0.0000000   0.0000000   0.0000000   0.0000000
   30   0.0000000   0.0000000  -0.0000000  -0.0000000
   31  -0.0000000  -0.0000000  -0.0000000   0.0000000
   32  -0.0000000  -0.0000000  -0.0000000  -0.0000000
   33   0.0000000  -0.0000000   0.0000000   0.0000000
   34   0.0000000   0.0000000   0.0000000   0.0000000
   35   0.0000000   0.0000000   0.0000000   0.0000000
   36  -0.0000000   0.0000000   0.0000000   0.0000000
   37   0.0000000   0.0000000  -0.0000000  -0.0000000
   38  -0.0000000   0.0000000  -0.0000000  -0.0000000
   39   0.0034515   0.0045032   0.0033981   0.0045733
   40   0.0045460   0.0054416   0.0044776   0.0055139
   41  -0.0137308  -0.0143877  -0.0134159  -0.0144674
   42  -0.0108620  -0.0081096  -0.0110186  -0.0087441
   43   0.0107416   0.0127446  -0.0136537  -0.0163157
   44  -0.0040549  -0.0063457  -0.0025410  -0.0028294
   45   0.0182650   0.0276586   0.0167582   0.0237797
   46   0.0110898   0.0084372  -0.0121555  -0.0091266
   47  -0.0018159  -0.0015459  -0.0000806   0.0002335
   48   0.0060153   0.0045656   0.0042012   0.0030178
   49  -0.0008357  -0.0006665   0.0008448   0.0005857
   50  -0.0004569  -0.0001113   0.0002109   0.0003116
   51   0.0009409  -0.0001610  -0.0001769  -0.0009207
   52   0.0045669   0.0034632  -0.0046787  -0.0032629
   53  -0.0003726   0.0000322   0.0004370   0.0005321
   54  -0.0204576  -0.0046491  -0.0205765  -0.0048583
   55  -0.0254452  -0.0066176  -0.0255992  -0.0068894
   56   0.0714179   0.0221217   0.0719693   0.0229798
   57   0.0559049   0.0204269   0.0564606   0.0210214
   58  -0.1300856  -0.0839200   0.1422085   0.0916157
   59   0.0224627   0.0143481   0.0045606   0.0039113
   60  -0.0884133  -0.0592357  -0.0699301  -0.0454226
   61  -0.0258461  -0.0172088   0.0277995   0.0183300
   62   0.0034368   0.0019619   0.0003435   0.0003253
   63  -0.0128363  -0.0076809  -0.0090865  -0.0049019
   64  -0.0019053  -0.0011745   0.0005670   0.0004879
   65  -0.0009057  -0.0003800   0.0003324   0.0004925
   66  -0.0011316  -0.0010508  -0.0028176  -0.0021184
   67   0.0081331   0.0054755  -0.0070708  -0.0047306
   68   0.0042089   0.0019403   0.0055240   0.0028009
   69   0.0139019   0.0146025  -0.0128932  -0.0097763
   70   0.0145328   0.0138573  -0.0099696  -0.0066941
   71  -0.0126777  -0.0091329   0.0136847   0.0134271
   72  -0.0096879  -0.0063027   0.0136594   0.0124241
   73   0.1101955   0.0639018  -0.0184767  -0.0200829
   74   0.0639018   0.0396735  -0.0200332  -0.0155199
   75  -0.0184767  -0.0200332   0.1101514   0.0633705
   76  -0.0200829  -0.0155199   0.0633705   0.0388298
 
 --------------------------------------------------------------
 
                    Orbital Energies (a.u.)
 --------------------------------------------------------------
 
 Alpha MOs
 -- Occupied --
-10.327 -10.326 -10.326 -10.325  -1.072  -1.069  -0.891  -0.885
 -0.770  -0.767  -0.708  -0.707  -0.654  -0.651  -0.546  -0.542
 -- Virtual --
 -0.055  -0.050   0.107   0.108   0.111   0.113   0.154   0.156
  0.216   0.221   0.235   0.235   0.269   0.272   0.285   0.286
  0.287   0.289   0.378   0.380   0.490   0.498   0.503   0.503
  0.528   0.553   0.861   0.865   0.928   0.936   0.941   0.948
  1.046   1.050   1.298   1.310   1.336   1.342   1.386   1.395
  1.662   1.682   1.736   1.753   1.842   1.860   1.920   1.932
  2.192   2.203   2.206   2.218   2.405   2.432   2.549   2.563
 22.404  22.411  22.776  22.799
 --------------------------------------------------------------
 
          Ground-State Mulliken Net Atomic Charges

     Atom                 Charge (a.u.)
  ----------------------------------------
      1 C                    -0.382881
      2 C                    -0.383413
      3 H                     0.205935
      4 H                     0.176426
      5 H                     0.196990
      6 H                     0.186944
      7 C                    -0.375890
      8 C                    -0.378030
      9 H                     0.181058
     10 H                     0.193675
     11 H                     0.188821
     12 H                     0.190366
  ----------------------------------------
  Sum of atomic charges =    -0.000000

 -----------------------------------------------------------------
                    Cartesian Multipole Moments
 -----------------------------------------------------------------
    Charge (ESU x 10^10)
                -0.0000
    Dipole Moment (Debye)
         X      -0.0299      Y      -0.0641      Z      -0.0259
       Tot       0.0753
    Quadrupole Moments (Debye-Ang)
        XX     -24.0058     XY      -2.2634     YY     -28.6864
        XZ      -1.1855     YZ      -3.9604     ZZ     -24.1839
    Octopole Moments (Debye-Ang^2)
       XXX   -1986.1583    XXY    -342.3829    XYY    -820.0734
       YYY    -966.1373    XXZ    -336.1853    XYZ    -121.8073
       YYZ    -473.1674    XZZ    -706.9682    YZZ    -362.8929
       ZZZ    -896.6646
    Hexadecapole Moments (Debye-Ang^3)
      XXXX -113724.0364   XXXY  -26716.5132   XXYY  -27802.0141
      XYYY  -29203.7326   YYYY  -28524.8836   XXXZ  -24439.0284
      XXYZ   -5875.1886   XYYZ  -12829.2694   YYYZ  -10289.8083
      XXZZ  -26695.8188   XYZZ  -10977.7045   YYZZ  -13377.6525
      XZZZ  -23814.0941   YZZZ   -8277.0641   ZZZZ  -35359.5621
 -----------------------------------------------------------------

-----------------------------------------------------------------
 Calculate fragment orbital coupling using Fock matrix
-----------------------------------------------------------------

 == Donor ==
 Use 2 occupied orbitals and 2 virtual orbitals
 HOMO = 8, LUMO = 9
 == Acceptor ==
 Use 2 occupied orbitals and 2 virtual orbitals
 HOMO = 8, LUMO = 9

 !! Omitting coupling values smaller than 1.0E-14

 -- Couplings (in eV) of Alpha Orbitals (donor,acceptor) --

-----------------------------------------------------------------

 No wavefunction analysis requested
Archival summary:
1\1\q51\SP\ProcedureUnspecified\BasisUnspecified\48\junyiwan\ThuJun300:43:432021ThuJun300:43:432021\0\\#,ProcedureUnspecified,BasisUnspecified,\\0,1\C\H,1,1.08774\H,1,1.08813,2,120.871\C,1,1.33603,2,119.216,3,-179.424,0\H,4,1.07449,1,122.333,2,2.06949,0\H,4,1.09893,1,120.883,2,179.809,0\H,3,21.1616,1,127.696,2,31.284,0\C,7,1.06937,3,122.522,1,-7.83533,0\H,8,1.08835,7,117.841,3,-17.4869,0\C,8,1.3545,7,121.446,3,161.874,0\H,10,1.04691,8,121.403,7,-176.546,0\H,10,1.11607,8,121.215,7,7.89434,0\\\@

 Total job time:  4.07s(wall), 0.90s(cpu) 
 Thu Jun  3 00:43:43 2021

        *************************************************************
        *                                                           *
        *  Thank you very much for using Q-Chem.  Have a nice day.  *
        *                                                           *
        *************************************************************


