q72 192.168.0
Q-Chem Developer Version! Running on 192.168.0.*
                  Welcome to Q-Chem
     A Quantum Leap Into The Future Of Chemistry


 Q-Chem 5.0, Q-Chem, Inc., Pleasanton, CA (2017)

 Yihan Shao,  Zhengting Gan,  E. Epifanovsky,  A. T. B. Gilbert,  M. Wormit,  
 J. Kussmann,  A. W. Lange,  A. Behn,  Jia Deng,  Xintian Feng,  D. Ghosh,  
 M. Goldey,  P. R. Horn,  L. D. Jacobson,  I. Kaliman,  T. Kus,  A. Landau,  
 Jie Liu,  E. I. Proynov,  R. M. Richard,  R. P. Steele,  E. J. Sundstrom,  
 H. L. Woodcock III,  P. M. Zimmerman,  D. Zuev,  B. Albrecht,  E. Alguire,  
 S. A. Baeppler,  Z. Benda,  Y. A. Bernard,  E. J. Berquist,  K. B. Bravaya,  
 D. Casanova,  Chun-Min Chang,  Yunqing Chen,  A. Chien,  K. D. Closser,  
 M. P. Coons,  S. Dasgupta,  M. Diedenhofen,  Hainam Do,  R. G. Edgar,  
 Po-Tung Fang,  S. Fatehi,  Qingguo Feng,  Qinghui Ge,  A. Ghysels,  
 J. Gomes,  J. Gonthier,  A. Gunina,  M. W. D. Hanson-Heine,  
 P. H. P. Harbach,  A. W. Hauser,  J. E. Herr,  E. G. Hohenstein,  
 Z. C. Holden,  Kerwin Hui,  T.-C. Jagau,  Hyunjun Ji,  B. Kaduk,  
 K. Khistyaev,  Jaehoon Kim,  P. Klunzinger,  K. Koh,  D. Kosenkov,  
 T. Kowalczyk,  C. M. Krauter,  A. Kunitsa,  Ka Un Lao,  A. Laurent,  
 K. V. Lawler,  Joonho Lee,  D. Lefrancois,  S. Lehtola,  D. S. Levine,  
 Yi-Pei Li,  You-Sheng Lin,  Fenglai Liu,  E. Livshits,  A. Luenser,  
 P. Manohar,  E. Mansoor,  S. F. Manzer,  Shan-Ping Mao,  Yuezhi Mao,  
 N. Mardirossian,  A. V. Marenich,  L. A. Martinez-Martinez,  S. A. Maurer,  
 N. J. Mayhall,  S. C. McKenzie,  J.-M. Mewes,  A. F. Morrison,  K. Nanda,  
 T. S. Nguyen-Beck,  R. Olivares-Amaya,  J. A. Parkhill,  T. M. Perrine,  
 F. Plasser,  S. Prager,  A. Prociuk,  D. R. Rehn,  F. Rob,  M. Schneider,  
 N. Sergueev,  S. M. Sharada,  S. Sharma,  D. W. Small,  T. Stauch,  
 T. Stein,  Yu-Chuan Su,  A. J. W. Thom,  T. Tsuchimochi,  L. Vogt,  
 O. Vydrov,  M. A. Watson,  J. Wenzel,  M. de Wergifosse,  T. A. Wesolowski,  
 A. White,  J. Witte,  A. Yamada,  Jun Yang,  K. Yao,  S. Yeganeh,  
 S. R. Yost,  Zhi-Qiang You,  A. Zech,  Igor Ying Zhang,  Xing Zhang,  
 Yan Zhao,  Ying Zhu,  B. R. Brooks,  G. K. L. Chan,  C. J. Cramer,  
 M. S. Gordon,  W. J. Hehre,  A. Klamt,  M. W. Schmidt,  C. D. Sherrill,  
 D. G. Truhlar,  A. Aspuru-Guzik,  R. Baer,  A. T. Bell,  N. A. Besley,  
 Jeng-Da Chai,  A. Dreuw,  B. D. Dunietz,  T. R. Furlani,  Chao-Ping Hsu,  
 Yousung Jung,  Jing Kong,  D. S. Lambrecht,  WanZhen Liang,  C. Ochsenfeld,  
 V. A. Rassolov,  L. V. Slipchenko,  J. E. Subotnik,  T. Van Voorhis,  
 J. M. Herbert,  A. I. Krylov,  P. M. W. Gill,  M. Head-Gordon

 Contributors to earlier versions of Q-Chem not listed above: 
 R. D. Adamson,  B. Austin,  J. Baker,  G. J. O. Beran,  K. Brandhorst,  
 S. T. Brown,  E. F. C. Byrd,  A. K. Chakraborty,  C.-L. Cheng,  
 Siu Hung Chien,  D. M. Chipman,  D. L. Crittenden,  H. Dachsel,  
 R. A. DiStasio Jr.,  R. J. Doerksen,  A. D. Dutoi,  L. Fusti-Molnar,  
 W. A. Goddard III,  A. Golubeva-Zadorozhnaya,  S. R. Gwaltney,  G. Hawkins,  
 A. Heyden,  S. Hirata,  G. Kedziora,  F. J. Keil,  C. Kelley,  Jihan Kim,  
 R. A. King,  R. Z. Khaliullin,  P. P. Korambath,  W. Kurlancheek,  
 A. M. Lee,  M. S. Lee,  S. V. Levchenko,  Ching Yeh Lin,  D. Liotard,  
 R. C. Lochan,  I. Lotan,  P. E. Maslen,  N. Nair,  D. P. O'Neill,  
 D. Neuhauser,  E. Neuscamman,  C. M. Oana,  R. Olson,  B. Peters,  
 R. Peverati,  P. A. Pieniazek,  Y. M. Rhee,  J. Ritchie,  M. A. Rohrdanz,  
 E. Rosta,  N. J. Russ,  H. F. Schaefer III,  N. E. Schultz,  N. Shenvi,  
 A. C. Simmonett,  A. Sodt,  D. Stuck,  K. S. Thanthiriwatte,  V. Vanovschi,  
 Tao Wang,  A. Warshel,  C. F. Williams,  Q. Wu,  X. Xu,  W. Zhang

 Please cite Q-Chem as follows:
 Y. Shao et al., Mol. Phys. 113, 184-215 (2015)
 DOI: 10.1080/00268976.2014.952696

 Q-Chem 5.0.0 for Intel X86 EM64T Linux

 Parts of Q-Chem use Armadillo 5.200.1 (Boston Tea Smuggler).
 http://arma.sourceforge.net/

 Q-Chem begins on Thu Jun  3 00:28:20 2021  

Host: q72
0

     Scratch files written to /scratch/junyiwang/qchem/qchem13697//

Checking the input file for inconsistencies... 	...done.

--------------------------------------------------------------
User input:
--------------------------------------------------------------
$comment
  Pair index in OpenMM: 1 and 3
$end

$molecule
  0  1
--
  0  1
C   40.1075220    2.6657623   20.2107859
C   40.6941605    3.4484723   19.2591572
H   40.6424999    1.8863696   20.7288599
H   39.0236688    2.7841285   20.4227638
H   40.1289940    4.1744831   18.7380779
H   41.7354774    3.3154142   19.0618205
--
  0  1
C   25.1950312    5.4835099   23.2523656
C   25.3026819    5.7128525   21.9405818
H   26.0881257    5.3210348   23.8717365
H   24.2439175    5.4128242   23.7472582
H   24.4005251    5.8669716   21.3527584
H   26.2846470    5.7342005   21.4722753
$end

$rem
	JOBTYPE      SP
	METHOD     	 BLYP			! Set the exchange-correlation functions
	BASIS        DZ*
	LRC_DFT		 TRUE			! Control the application of long-range-corrected DFT
	OMEGA		 410			! Set the range-separation parameter
	!GUI  =  2
	MAX_SCF_CYCLES	 200
	SCF_PRINT_FRGM   TRUE		! for printing out SCF results of each fragments
	SCF_FINAL_PRINT  2
	SYM_IGNORE       TRUE		! Necessary rem key for DC calculations.
	SCF_GUESS        FRAGMO		! Use MOs of each fragments.
	STS_DC               FOCK	! Use Frontier Molecular Orbital (FMO) approach
	SCF_CONVERGENCE      5		! 5 For SP calculations/8 For OPT, vibrational analysis and SSG calculation; see p. 1083 in Q-Chem Manual 5.0
	STS_TRANS_DONOR      2-2
	STS_TRANS_ACCEPTOR   2-2
$end
--------------------------------------------------------------
 ----------------------------------------------------------------
             Standard Nuclear Orientation (Angstroms)
    I     Atom           X                Y                Z
 ----------------------------------------------------------------
    1      C      40.1075220000     2.6657623000    20.2107859000
    2      C      40.6941605000     3.4484723000    19.2591572000
    3      H      40.6424999000     1.8863696000    20.7288599000
    4      H      39.0236688000     2.7841285000    20.4227638000
    5      H      40.1289940000     4.1744831000    18.7380779000
    6      H      41.7354774000     3.3154142000    19.0618205000
    7      C      25.1950312000     5.4835099000    23.2523656000
    8      C      25.3026819000     5.7128525000    21.9405818000
    9      H      26.0881257000     5.3210348000    23.8717365000
   10      H      24.2439175000     5.4128242000    23.7472582000
   11      H      24.4005251000     5.8669716000    21.3527584000
   12      H      26.2846470000     5.7342005000    21.4722753000
 ----------------------------------------------------------------
 Nuclear Repulsion Energy =    75.0408804081 hartrees
 There are       16 alpha and       16 beta electrons
 Requested basis set is DZ(d)
 There are 44 shells and 76 basis functions

 Total QAlloc Memory Limit   2000 MB
 Mega-Array Size        61 MB
 MEM_STATIC part        62 MB

                       Distance Matrix (Angstroms)
             C (  1)   C (  2)   H (  3)   H (  4)   H (  5)   H (  6)
   C (  2)  1.364689
   H (  3)  1.077987  2.145428
   H (  4)  1.110713  2.141466  1.876241
   H (  5)  2.108452  1.057369  3.076096  2.448060
   H (  6)  2.095807  1.068170  2.452710  3.080314  1.850297
   C (  7) 15.478155 16.134128 16.060255 14.370961 15.656168 17.200223
   C (  8) 15.213818 15.786547 15.856237 14.111934 15.246053 16.854428
   H (  9) 14.730801 15.431093 15.280851 13.625696 14.993833 16.492344
   H ( 10) 16.483535 17.164272 17.042890 15.375414 16.702127 18.229293
   H ( 11) 16.070519 16.604664 16.734282 14.973481 16.033896 17.670863
   H ( 12) 14.215433 14.756576 14.883091 13.118196 14.197693 15.823684
             C (  7)   C (  8)   H (  9)   H ( 10)   H ( 11)
   C (  8)  1.336025
   H (  9)  1.098925  2.121274
   H ( 10)  1.074492  2.115438  1.850682
   H ( 11)  2.094467  1.087739  3.080794  2.442213
   H ( 12)  2.102101  1.088128  2.442691  3.073013  1.892572
 
 A cutoff of  1.0D-08 yielded    506 shell pairs
 There are      1546 function pairs (      1724 Cartesian)
 Smallest overlap matrix eigenvalue = 4.25E-03

 Scale SEOQF with 1.000000e-03/1.000000e-02/1.000000e-03

 Standard Electronic Orientation quadrupole field applied
 Nucleus-field energy     =     0.0000000022 hartrees
 Guess MOs from converged MOs on fragments

QCSCRATCH   is /scratch/junyiwang/qchem
QCFILEPREF  is /scratch/junyiwang/qchem/qchem13697/

-----------------------------------------------------------------
 SCF on fragment 1 out of 2 in state 1
-----------------------------------------------------------------

/opt/qchem/cvs/bin/xr.csh /scratch/junyiwang/qchem/qchem13697/Frg1s1.input  stdout  Frg1s1
/opt/qchem/cvs/bin/xr.csh /scratch/junyiwang/qchem/qchem13697/Frg1s1.input stdout Frg1s1
QCSCRATCH is /scratch/junyiwang/qchem/qchem13697/Frg1s1
QCFILEPREF is /scratch/junyiwang/qchem/qchem13697/Frg1s1/
-- Serial fragment SCF job
qcprog.exe.5.release /scratch/junyiwang/qchem/qchem13697/Frg1s1.input /scratch/junyiwang/qchem/qchem13697/Frg1s1/
q72 192.168.0
Q-Chem Developer Version! Running on 192.168.0.*
                  Welcome to Q-Chem
     A Quantum Leap Into The Future Of Chemistry


 Q-Chem 5.0, Q-Chem, Inc., Pleasanton, CA (2017)

 Yihan Shao,  Zhengting Gan,  E. Epifanovsky,  A. T. B. Gilbert,  M. Wormit,  
 J. Kussmann,  A. W. Lange,  A. Behn,  Jia Deng,  Xintian Feng,  D. Ghosh,  
 M. Goldey,  P. R. Horn,  L. D. Jacobson,  I. Kaliman,  T. Kus,  A. Landau,  
 Jie Liu,  E. I. Proynov,  R. M. Richard,  R. P. Steele,  E. J. Sundstrom,  
 H. L. Woodcock III,  P. M. Zimmerman,  D. Zuev,  B. Albrecht,  E. Alguire,  
 S. A. Baeppler,  Z. Benda,  Y. A. Bernard,  E. J. Berquist,  K. B. Bravaya,  
 D. Casanova,  Chun-Min Chang,  Yunqing Chen,  A. Chien,  K. D. Closser,  
 M. P. Coons,  S. Dasgupta,  M. Diedenhofen,  Hainam Do,  R. G. Edgar,  
 Po-Tung Fang,  S. Fatehi,  Qingguo Feng,  Qinghui Ge,  A. Ghysels,  
 J. Gomes,  J. Gonthier,  A. Gunina,  M. W. D. Hanson-Heine,  
 P. H. P. Harbach,  A. W. Hauser,  J. E. Herr,  E. G. Hohenstein,  
 Z. C. Holden,  Kerwin Hui,  T.-C. Jagau,  Hyunjun Ji,  B. Kaduk,  
 K. Khistyaev,  Jaehoon Kim,  P. Klunzinger,  K. Koh,  D. Kosenkov,  
 T. Kowalczyk,  C. M. Krauter,  A. Kunitsa,  Ka Un Lao,  A. Laurent,  
 K. V. Lawler,  Joonho Lee,  D. Lefrancois,  S. Lehtola,  D. S. Levine,  
 Yi-Pei Li,  You-Sheng Lin,  Fenglai Liu,  E. Livshits,  A. Luenser,  
 P. Manohar,  E. Mansoor,  S. F. Manzer,  Shan-Ping Mao,  Yuezhi Mao,  
 N. Mardirossian,  A. V. Marenich,  L. A. Martinez-Martinez,  S. A. Maurer,  
 N. J. Mayhall,  S. C. McKenzie,  J.-M. Mewes,  A. F. Morrison,  K. Nanda,  
 T. S. Nguyen-Beck,  R. Olivares-Amaya,  J. A. Parkhill,  T. M. Perrine,  
 F. Plasser,  S. Prager,  A. Prociuk,  D. R. Rehn,  F. Rob,  M. Schneider,  
 N. Sergueev,  S. M. Sharada,  S. Sharma,  D. W. Small,  T. Stauch,  
 T. Stein,  Yu-Chuan Su,  A. J. W. Thom,  T. Tsuchimochi,  L. Vogt,  
 O. Vydrov,  M. A. Watson,  J. Wenzel,  M. de Wergifosse,  T. A. Wesolowski,  
 A. White,  J. Witte,  A. Yamada,  Jun Yang,  K. Yao,  S. Yeganeh,  
 S. R. Yost,  Zhi-Qiang You,  A. Zech,  Igor Ying Zhang,  Xing Zhang,  
 Yan Zhao,  Ying Zhu,  B. R. Brooks,  G. K. L. Chan,  C. J. Cramer,  
 M. S. Gordon,  W. J. Hehre,  A. Klamt,  M. W. Schmidt,  C. D. Sherrill,  
 D. G. Truhlar,  A. Aspuru-Guzik,  R. Baer,  A. T. Bell,  N. A. Besley,  
 Jeng-Da Chai,  A. Dreuw,  B. D. Dunietz,  T. R. Furlani,  Chao-Ping Hsu,  
 Yousung Jung,  Jing Kong,  D. S. Lambrecht,  WanZhen Liang,  C. Ochsenfeld,  
 V. A. Rassolov,  L. V. Slipchenko,  J. E. Subotnik,  T. Van Voorhis,  
 J. M. Herbert,  A. I. Krylov,  P. M. W. Gill,  M. Head-Gordon

 Contributors to earlier versions of Q-Chem not listed above: 
 R. D. Adamson,  B. Austin,  J. Baker,  G. J. O. Beran,  K. Brandhorst,  
 S. T. Brown,  E. F. C. Byrd,  A. K. Chakraborty,  C.-L. Cheng,  
 Siu Hung Chien,  D. M. Chipman,  D. L. Crittenden,  H. Dachsel,  
 R. A. DiStasio Jr.,  R. J. Doerksen,  A. D. Dutoi,  L. Fusti-Molnar,  
 W. A. Goddard III,  A. Golubeva-Zadorozhnaya,  S. R. Gwaltney,  G. Hawkins,  
 A. Heyden,  S. Hirata,  G. Kedziora,  F. J. Keil,  C. Kelley,  Jihan Kim,  
 R. A. King,  R. Z. Khaliullin,  P. P. Korambath,  W. Kurlancheek,  
 A. M. Lee,  M. S. Lee,  S. V. Levchenko,  Ching Yeh Lin,  D. Liotard,  
 R. C. Lochan,  I. Lotan,  P. E. Maslen,  N. Nair,  D. P. O'Neill,  
 D. Neuhauser,  E. Neuscamman,  C. M. Oana,  R. Olson,  B. Peters,  
 R. Peverati,  P. A. Pieniazek,  Y. M. Rhee,  J. Ritchie,  M. A. Rohrdanz,  
 E. Rosta,  N. J. Russ,  H. F. Schaefer III,  N. E. Schultz,  N. Shenvi,  
 A. C. Simmonett,  A. Sodt,  D. Stuck,  K. S. Thanthiriwatte,  V. Vanovschi,  
 Tao Wang,  A. Warshel,  C. F. Williams,  Q. Wu,  X. Xu,  W. Zhang

 Please cite Q-Chem as follows:
 Y. Shao et al., Mol. Phys. 113, 184-215 (2015)
 DOI: 10.1080/00268976.2014.952696

 Q-Chem 5.0.0 for Intel X86 EM64T Linux

 Parts of Q-Chem use Armadillo 5.200.1 (Boston Tea Smuggler).
 http://arma.sourceforge.net/

 Q-Chem begins on Thu Jun  3 00:28:20 2021  

Host: q72
0

     Scratch files written to /scratch/junyiwang/qchem/qchem13697/Frg1s1//

Checking the input file for inconsistencies... 	...done.

--------------------------------------------------------------
User input:
--------------------------------------------------------------
$molecule
0 1
 6	40.1075220000	2.6657623000	20.2107859000
 6	40.6941605000	3.4484723000	19.2591572000
 1	40.6424999000	1.8863696000	20.7288599000
 1	39.0236688000	2.7841285000	20.4227638000
 1	40.1289940000	4.1744831000	18.7380779000
 1	41.7354774000	3.3154142000	19.0618205000
$end

$rem
METHOD		BLYP
BASIS		DZ*
LRC_DFT		TRUE
OMEGA		410
MAX_SCF_CYCLES		200
SCF_PRINT_FRGM		TRUE
SCF_FINAL_PRINT		2
SYM_IGNORE		TRUE
SCF_CONVERGENCE		5
!required keywords
JOBTYPE		SP
SYM_IGNORE		TRUE
SUBSYSTEM		TRUE
SAVE_SUBSYSTEM		TRUE
$end
--------------------------------------------------------------
 ----------------------------------------------------------------
             Standard Nuclear Orientation (Angstroms)
    I     Atom           X                Y                Z
 ----------------------------------------------------------------
    1      C      40.1075220000     2.6657623000    20.2107859000
    2      C      40.6941605000     3.4484723000    19.2591572000
    3      H      40.6424999000     1.8863696000    20.7288599000
    4      H      39.0236688000     2.7841285000    20.4227638000
    5      H      40.1289940000     4.1744831000    18.7380779000
    6      H      41.7354774000     3.3154142000    19.0618205000
 ----------------------------------------------------------------
 Nuclear Repulsion Energy =    33.0658619806 hartrees
 There are        8 alpha and        8 beta electrons
 Requested basis set is DZ(d)
 There are 22 shells and 38 basis functions

 Total QAlloc Memory Limit   2000 MB
 Mega-Array Size        61 MB
 MEM_STATIC part        62 MB

                       Distance Matrix (Angstroms)
             C (  1)   C (  2)   H (  3)   H (  4)   H (  5)
   C (  2)  1.364689
   H (  3)  1.077987  2.145428
   H (  4)  1.110713  2.141466  1.876241
   H (  5)  2.108452  1.057369  3.076096  2.448060
   H (  6)  2.095807  1.068170  2.452710  3.080314  1.850297
 
 A cutoff of  1.0D-08 yielded    253 shell pairs
 There are       773 function pairs (       862 Cartesian)
 Smallest overlap matrix eigenvalue = 4.36E-03

 Scale SEOQF with 1.000000e-03/1.000000e-01/1.000000e-03

 Standard Electronic Orientation quadrupole field applied
 Nucleus-field energy     =     0.0000000136 hartrees
 Guess from superposition of atomic densities
 Warning:  Energy on first SCF cycle will be non-variational
 Overlap Matrix
            1           2           3           4           5           6
    1   1.0000000   0.8444081   0.3324251   0.1580343   0.0000000  -0.0000000
    2   0.8444081   1.0000000   0.4262148   0.1940327  -0.0000000   0.0000000
    3   0.3324251   0.4262148   1.0000000   0.7826642   0.0000000   0.0000000
    4   0.1580343   0.1940327   0.7826642   1.0000000  -0.0000000   0.0000000
    5   0.0000000  -0.0000000   0.0000000  -0.0000000   1.0000000   0.0000000
    6  -0.0000000   0.0000000   0.0000000   0.0000000   0.0000000   1.0000000
    7   0.0000000   0.0000000  -0.0000000  -0.0000000   0.0000000   0.0000000
    8   0.0000000   0.0000000  -0.0000000   0.0000000   0.5387949   0.0000000
    9  -0.0000000   0.0000000   0.0000000   0.0000000   0.0000000   0.5387949
   10  -0.0000000   0.0000000  -0.0000000   0.0000000   0.0000000   0.0000000
   11   0.0000000   0.0000000   0.0000000   0.0000000   0.0000000   0.0000000
   12   0.0000000   0.0000000   0.0000000   0.0000000   0.0000000   0.0000000
   13   0.0000000   0.0000000   0.0000000   0.0000000   0.0000000  -0.0000000
   14   0.0000000   0.0000000   0.0000000   0.0000000   0.0000000   0.0000000
   15   0.0000000   0.0000000   0.0000000   0.0000000   0.0000000  -0.0000000
   16   0.0000867   0.0000159   0.0189299   0.0597425   0.0255962   0.0341512
   17   0.0000159   0.0000000   0.0210104   0.0720935   0.0305720   0.0407901
   18   0.0189299   0.0210104   0.1920440   0.3591707   0.1469676   0.1960884
   19   0.0597425   0.0720935   0.3591707   0.6006315   0.1336285   0.1782910
   20  -0.0255962  -0.0305720  -0.1469676  -0.1336285   0.0861121  -0.1322821
   21  -0.0341512  -0.0407901  -0.1960884  -0.1782910  -0.1322821   0.0087625
   22   0.0415215   0.0495931   0.2384068   0.2167684   0.1608302   0.2145843
   23  -0.0448687  -0.0549431  -0.2265042  -0.2733266   0.2303302  -0.0873161
   24  -0.0598652  -0.0733066  -0.3022084  -0.3646802  -0.0873161   0.1792736
   25   0.0727848   0.0891272   0.3674288   0.4433828   0.1061601   0.1416418
   26   0.0223381   0.0262118   0.1036786   0.0395295  -0.0319250   0.0270052
   27  -0.0362362  -0.0425200  -0.1681845  -0.0641237  -0.1412989  -0.0438071
   28   0.0119992   0.0140800   0.0556924   0.0212338   0.0982963   0.1311498
   29  -0.0271589  -0.0318686  -0.1260537  -0.0480605   0.0388149  -0.1412989
   30  -0.0065309  -0.0076634  -0.0303121  -0.0115571  -0.1146789   0.0850517
   31   0.0328339   0.0371486   0.2744293   0.3770833   0.2170058  -0.3161490
   32   0.0868304   0.1055409   0.4806883   0.7078704   0.1790477  -0.2608490
   33   0.0285487   0.0320045   0.2545099   0.3650929  -0.4081436   0.0445728
   34   0.0831731   0.1010065   0.4648734   0.6931282  -0.3512342   0.0383578
   35   0.0000736   0.0000413   0.0093241   0.0859531   0.0004206   0.0295548
   36   0.0121091   0.0140986   0.1037146   0.2697481   0.0016599   0.1166298
   37   0.0000810   0.0000461   0.0098418   0.0880320   0.0333899   0.0133246
   38   0.0125010   0.0145657   0.1063220   0.2739946   0.1288437   0.0514164
            7           8           9          10          11          12
    1   0.0000000   0.0000000  -0.0000000  -0.0000000   0.0000000   0.0000000
    2   0.0000000   0.0000000   0.0000000   0.0000000   0.0000000   0.0000000
    3  -0.0000000  -0.0000000   0.0000000  -0.0000000   0.0000000   0.0000000
    4  -0.0000000   0.0000000   0.0000000   0.0000000   0.0000000   0.0000000
    5   0.0000000   0.5387949   0.0000000   0.0000000   0.0000000   0.0000000
    6   0.0000000   0.0000000   0.5387949   0.0000000   0.0000000   0.0000000
    7   1.0000000   0.0000000   0.0000000   0.5387949   0.0000000   0.0000000
    8   0.0000000   1.0000000   0.0000000   0.0000000   0.0000000   0.0000000
    9   0.0000000   0.0000000   1.0000000   0.0000000   0.0000000  -0.0000000
   10   0.5387949   0.0000000   0.0000000   1.0000000   0.0000000   0.0000000
   11   0.0000000   0.0000000   0.0000000   0.0000000   1.0000000   0.0000000
   12   0.0000000   0.0000000  -0.0000000   0.0000000   0.0000000   1.0000000
   13   0.0000000   0.0000000   0.0000000  -0.0000000   0.0000000   0.0000000
   14   0.0000000  -0.0000000   0.0000000   0.0000000   0.0000000   0.0000000
   15   0.0000000   0.0000000   0.0000000   0.0000000   0.0000000   0.0000000
   16  -0.0415215   0.0448687   0.0598652  -0.0727848   0.0223381  -0.0362362
   17  -0.0495931   0.0549431   0.0733066  -0.0891272   0.0262118  -0.0425200
   18  -0.2384068   0.2265042   0.3022084  -0.3674288   0.1036786  -0.1681845
   19  -0.2167684   0.2733266   0.3646802  -0.4433828   0.0395295  -0.0641237
   20   0.1608302   0.2303302  -0.0873161   0.1061601   0.0319250   0.1412989
   21   0.2145843  -0.0873161   0.1792736   0.1416418  -0.0270052   0.0438071
   22  -0.0756372   0.1061601   0.1416418   0.1235634   0.1412989  -0.1101813
   23   0.1061601   0.5869108  -0.1283664   0.1560695   0.0501727   0.0263172
   24   0.1416418  -0.1283664   0.5118508   0.2082324   0.0281179  -0.0456121
   25   0.1235634   0.1560695   0.2082324   0.4299493   0.0263172   0.0237051
   26  -0.1412989  -0.0501727  -0.0281179  -0.0263172  -0.0041423  -0.0791229
   27   0.1101813  -0.0263172   0.0456121  -0.0237051  -0.0791229   0.0754327
   28   0.0912052   0.0374457   0.0499611   0.0790769   0.1843519  -0.0137141
   29   0.0825805   0.0610006  -0.0263172  -0.0177669   0.0128954   0.1447620
   30   0.0413110  -0.0545069   0.0600677   0.0076943  -0.0365138  -0.1055074
   31   0.2101490   0.2146529  -0.3127212   0.2078704  -0.2266835  -0.2195209
   32   0.1733903   0.3006648  -0.4380293   0.2911646  -0.0629890  -0.0609987
   33   0.0798239  -0.4240170   0.0463063   0.0829284  -0.0630593   0.0123330
   34   0.0686937  -0.5983834   0.0653487   0.1170307  -0.0186818   0.0036538
   35  -0.0288493   0.0027041   0.1900010  -0.1854657   0.0002426  -0.0166396
   36  -0.1138459   0.0053323   0.3746709  -0.3657276   0.0009087  -0.0623234
   37  -0.0235657   0.2088960   0.0833620  -0.1474329   0.0084680  -0.0059765
   38  -0.0909343   0.4096626   0.1634800  -0.2891284   0.0304851  -0.0215155
           13          14          15          16          17          18
    1   0.0000000   0.0000000   0.0000000   0.0000867   0.0000159   0.0189299
    2   0.0000000   0.0000000   0.0000000   0.0000159   0.0000000   0.0210104
    3   0.0000000   0.0000000   0.0000000   0.0189299   0.0210104   0.1920440
    4   0.0000000   0.0000000   0.0000000   0.0597425   0.0720935   0.3591707
    5   0.0000000   0.0000000   0.0000000   0.0255962   0.0305720   0.1469676
    6  -0.0000000   0.0000000  -0.0000000   0.0341512   0.0407901   0.1960884
    7   0.0000000   0.0000000   0.0000000  -0.0415215  -0.0495931  -0.2384068
    8   0.0000000  -0.0000000   0.0000000   0.0448687   0.0549431   0.2265042
    9   0.0000000   0.0000000   0.0000000   0.0598652   0.0733066   0.3022084
   10  -0.0000000   0.0000000   0.0000000  -0.0727848  -0.0891272  -0.3674288
   11   0.0000000   0.0000000   0.0000000   0.0223381   0.0262118   0.1036786
   12   0.0000000   0.0000000   0.0000000  -0.0362362  -0.0425200  -0.1681845
   13   1.0000000   0.0000000   0.0000000   0.0119992   0.0140800   0.0556924
   14   0.0000000   1.0000000   0.0000000  -0.0271589  -0.0318686  -0.1260537
   15   0.0000000   0.0000000   1.0000000  -0.0065309  -0.0076634  -0.0303121
   16   0.0119992  -0.0271589  -0.0065309   1.0000000   0.8444081   0.3324251
   17   0.0140800  -0.0318686  -0.0076634   0.8444081   1.0000000   0.4262148
   18   0.0556924  -0.1260537  -0.0303121   0.3324251   0.4262148   1.0000000
   19   0.0212338  -0.0480605  -0.0115571   0.1580343   0.1940327   0.7826642
   20  -0.0982963  -0.0388149   0.1146789   0.0000000   0.0000000   0.0000000
   21  -0.1311498   0.1412989  -0.0850517  -0.0000000   0.0000000   0.0000000
   22  -0.0912052  -0.0825805  -0.0413110  -0.0000000   0.0000000   0.0000000
   23  -0.0374457  -0.0610006   0.0545069   0.0000000  -0.0000000   0.0000000
   24  -0.0499611   0.0263172  -0.0600677   0.0000000   0.0000000   0.0000000
   25  -0.0790769   0.0177669  -0.0076943  -0.0000000  -0.0000000   0.0000000
   26   0.1843519   0.0128954  -0.0365138   0.0000000   0.0000000   0.0000000
   27  -0.0137141   0.1447620  -0.1055074   0.0000000   0.0000000   0.0000000
   28  -0.2189776  -0.0102787  -0.0538983   0.0000000   0.0000000   0.0000000
   29  -0.0102787  -0.0092143   0.1678653  -0.0000000   0.0000000   0.0000000
   30  -0.0538983   0.1678653  -0.1183576   0.0000000   0.0000000   0.0000000
   31  -0.0560050   0.1506799  -0.0873259   0.0000555   0.0000298   0.0079471
   32  -0.0155622   0.0418697  -0.0242654   0.0110201   0.0128026   0.0963685
   33  -0.1559231  -0.1129307   0.2852668   0.0000572   0.0000309   0.0080854
   34  -0.0461934  -0.0334566   0.0845125   0.0111328   0.0129366   0.0971360
   35   0.0044557  -0.0002368  -0.0085215   0.0357926   0.0407181   0.2874546
   36   0.0166886  -0.0008870  -0.0319172   0.0891578   0.1084283   0.4906749
   37  -0.0009986  -0.0149764   0.0089203   0.0342168   0.0388153   0.2805855
   38  -0.0035950  -0.0539155   0.0321134   0.0879364   0.1069129   0.4854416
           19          20          21          22          23          24
    1   0.0597425  -0.0255962  -0.0341512   0.0415215  -0.0448687  -0.0598652
    2   0.0720935  -0.0305720  -0.0407901   0.0495931  -0.0549431  -0.0733066
    3   0.3591707  -0.1469676  -0.1960884   0.2384068  -0.2265042  -0.3022084
    4   0.6006315  -0.1336285  -0.1782910   0.2167684  -0.2733266  -0.3646802
    5   0.1336285   0.0861121  -0.1322821   0.1608302   0.2303302  -0.0873161
    6   0.1782910  -0.1322821   0.0087625   0.2145843  -0.0873161   0.1792736
    7  -0.2167684   0.1608302   0.2145843  -0.0756372   0.1061601   0.1416418
    8   0.2733266   0.2303302  -0.0873161   0.1061601   0.5869108  -0.1283664
    9   0.3646802  -0.0873161   0.1792736   0.1416418  -0.1283664   0.5118508
   10  -0.4433828   0.1061601   0.1416418   0.1235634   0.1560695   0.2082324
   11   0.0395295   0.0319250  -0.0270052   0.1412989   0.0501727   0.0281179
   12  -0.0641237   0.1412989   0.0438071  -0.1101813   0.0263172  -0.0456121
   13   0.0212338  -0.0982963  -0.1311498  -0.0912052  -0.0374457  -0.0499611
   14  -0.0480605  -0.0388149   0.1412989  -0.0825805  -0.0610006   0.0263172
   15  -0.0115571   0.1146789  -0.0850517  -0.0413110   0.0545069  -0.0600677
   16   0.1580343   0.0000000  -0.0000000  -0.0000000   0.0000000   0.0000000
   17   0.1940327   0.0000000   0.0000000   0.0000000  -0.0000000   0.0000000
   18   0.7826642   0.0000000   0.0000000   0.0000000   0.0000000   0.0000000
   19   1.0000000  -0.0000000   0.0000000   0.0000000   0.0000000   0.0000000
   20  -0.0000000   1.0000000   0.0000000   0.0000000   0.5387949   0.0000000
   21   0.0000000   0.0000000   1.0000000   0.0000000   0.0000000   0.5387949
   22   0.0000000   0.0000000   0.0000000   1.0000000   0.0000000   0.0000000
   23   0.0000000   0.5387949   0.0000000   0.0000000   1.0000000   0.0000000
   24   0.0000000   0.0000000   0.5387949   0.0000000   0.0000000   1.0000000
   25   0.0000000   0.0000000   0.0000000   0.5387949   0.0000000   0.0000000
   26   0.0000000   0.0000000   0.0000000   0.0000000  -0.0000000  -0.0000000
   27   0.0000000   0.0000000   0.0000000   0.0000000   0.0000000   0.0000000
   28   0.0000000  -0.0000000  -0.0000000   0.0000000   0.0000000   0.0000000
   29   0.0000000   0.0000000   0.0000000   0.0000000   0.0000000   0.0000000
   30   0.0000000   0.0000000  -0.0000000   0.0000000  -0.0000000   0.0000000
   31   0.0800856  -0.0008836  -0.0267184   0.0251380  -0.0061549  -0.1861107
   32   0.2575652  -0.0037251  -0.1126381   0.1059754  -0.0123370  -0.3730431
   33   0.0806993  -0.0289934  -0.0115305   0.0201958  -0.2002197  -0.0796261
   34   0.2588537  -0.1213620  -0.0482649   0.0845365  -0.4006162  -0.1593225
   35   0.3846484  -0.2400665   0.3083886  -0.2213396  -0.2303199   0.2958681
   36   0.7170869  -0.1929397   0.2478496  -0.1778889  -0.3211288   0.4125209
   37   0.3806846   0.4317990  -0.0551747  -0.0818289   0.4209358  -0.0537866
   38   0.7122658   0.3518331  -0.0449568  -0.0666748   0.5883092  -0.0751734
           25          26          27          28          29          30
    1   0.0727848   0.0223381  -0.0362362   0.0119992  -0.0271589  -0.0065309
    2   0.0891272   0.0262118  -0.0425200   0.0140800  -0.0318686  -0.0076634
    3   0.3674288   0.1036786  -0.1681845   0.0556924  -0.1260537  -0.0303121
    4   0.4433828   0.0395295  -0.0641237   0.0212338  -0.0480605  -0.0115571
    5   0.1061601  -0.0319250  -0.1412989   0.0982963   0.0388149  -0.1146789
    6   0.1416418   0.0270052  -0.0438071   0.1311498  -0.1412989   0.0850517
    7   0.1235634  -0.1412989   0.1101813   0.0912052   0.0825805   0.0413110
    8   0.1560695  -0.0501727  -0.0263172   0.0374457   0.0610006  -0.0545069
    9   0.2082324  -0.0281179   0.0456121   0.0499611  -0.0263172   0.0600677
   10   0.4299493  -0.0263172  -0.0237051   0.0790769  -0.0177669   0.0076943
   11   0.0263172  -0.0041423  -0.0791229   0.1843519   0.0128954  -0.0365138
   12   0.0237051  -0.0791229   0.0754327  -0.0137141   0.1447620  -0.1055074
   13  -0.0790769   0.1843519  -0.0137141  -0.2189776  -0.0102787  -0.0538983
   14   0.0177669   0.0128954   0.1447620  -0.0102787  -0.0092143   0.1678653
   15  -0.0076943  -0.0365138  -0.1055074  -0.0538983   0.1678653  -0.1183576
   16  -0.0000000   0.0000000   0.0000000   0.0000000  -0.0000000   0.0000000
   17  -0.0000000   0.0000000   0.0000000   0.0000000   0.0000000   0.0000000
   18   0.0000000   0.0000000   0.0000000   0.0000000   0.0000000   0.0000000
   19   0.0000000   0.0000000   0.0000000   0.0000000   0.0000000   0.0000000
   20   0.0000000   0.0000000   0.0000000  -0.0000000   0.0000000   0.0000000
   21   0.0000000   0.0000000   0.0000000  -0.0000000   0.0000000  -0.0000000
   22   0.5387949   0.0000000   0.0000000   0.0000000   0.0000000   0.0000000
   23   0.0000000  -0.0000000   0.0000000   0.0000000   0.0000000  -0.0000000
   24   0.0000000  -0.0000000   0.0000000   0.0000000   0.0000000   0.0000000
   25   1.0000000   0.0000000  -0.0000000   0.0000000  -0.0000000   0.0000000
   26   0.0000000   1.0000000   0.0000000   0.0000000   0.0000000   0.0000000
   27  -0.0000000   0.0000000   1.0000000   0.0000000   0.0000000   0.0000000
   28   0.0000000   0.0000000   0.0000000   1.0000000   0.0000000   0.0000000
   29  -0.0000000   0.0000000   0.0000000   0.0000000   1.0000000   0.0000000
   30   0.0000000   0.0000000   0.0000000   0.0000000   0.0000000   1.0000000
   31   0.1751021   0.0004959  -0.0141092   0.0033303  -0.0004666  -0.0074899
   32   0.3509773   0.0020882  -0.0594067   0.0140223  -0.0019646  -0.0315362
   33   0.1394661   0.0069673  -0.0048532  -0.0009495  -0.0122034   0.0073742
   34   0.2790554   0.0289678  -0.0201780  -0.0039479  -0.0507375   0.0306596
   35  -0.2123533  -0.2374045  -0.2188852  -0.0506847   0.1703922  -0.0600802
   36  -0.2960783  -0.0634011  -0.0584554  -0.0135358   0.0455049  -0.0160450
   37  -0.0797702  -0.0776031   0.0147063  -0.1655895  -0.1150922   0.2987042
   38  -0.1114886  -0.0211587   0.0040097  -0.0451484  -0.0313802   0.0814425
           31          32          33          34          35          36
    1   0.0328339   0.0868304   0.0285487   0.0831731   0.0000736   0.0121091
    2   0.0371486   0.1055409   0.0320045   0.1010065   0.0000413   0.0140986
    3   0.2744293   0.4806883   0.2545099   0.4648734   0.0093241   0.1037146
    4   0.3770833   0.7078704   0.3650929   0.6931282   0.0859531   0.2697481
    5   0.2170058   0.1790477  -0.4081436  -0.3512342   0.0004206   0.0016599
    6  -0.3161490  -0.2608490   0.0445728   0.0383578   0.0295548   0.1166298
    7   0.2101490   0.1733903   0.0798239   0.0686937  -0.0288493  -0.1138459
    8   0.2146529   0.3006648  -0.4240170  -0.5983834   0.0027041   0.0053323
    9  -0.3127212  -0.4380293   0.0463063   0.0653487   0.1900010   0.3746709
   10   0.2078704   0.2911646   0.0829284   0.1170307  -0.1854657  -0.3657276
   11  -0.2266835  -0.0629890  -0.0630593  -0.0186818   0.0002426   0.0009087
   12  -0.2195209  -0.0609987   0.0123330   0.0036538  -0.0166396  -0.0623234
   13  -0.0560050  -0.0155622  -0.1559231  -0.0461934   0.0044557   0.0166886
   14   0.1506799   0.0418697  -0.1129307  -0.0334566  -0.0002368  -0.0008870
   15  -0.0873259  -0.0242654   0.2852668   0.0845125  -0.0085215  -0.0319172
   16   0.0000555   0.0110201   0.0000572   0.0111328   0.0357926   0.0891578
   17   0.0000298   0.0128026   0.0000309   0.0129366   0.0407181   0.1084283
   18   0.0079471   0.0963685   0.0080854   0.0971360   0.2874546   0.4906749
   19   0.0800856   0.2575652   0.0806993   0.2588537   0.3846484   0.7170869
   20  -0.0008836  -0.0037251  -0.0289934  -0.1213620  -0.2400665  -0.1929397
   21  -0.0267184  -0.1126381  -0.0115305  -0.0482649   0.3083886   0.2478496
   22   0.0251380   0.1059754   0.0201958   0.0845365  -0.2213396  -0.1778889
   23  -0.0061549  -0.0123370  -0.2002197  -0.4006162  -0.2303199  -0.3211288
   24  -0.1861107  -0.3730431  -0.0796261  -0.1593225   0.2958681   0.4125209
   25   0.1751021   0.3509773   0.1394661   0.2790554  -0.2123533  -0.2960783
   26   0.0004959   0.0020882   0.0069673   0.0289678  -0.2374045  -0.0634011
   27  -0.0141092  -0.0594067  -0.0048532  -0.0201780  -0.2188852  -0.0584554
   28   0.0033303   0.0140223  -0.0009495  -0.0039479  -0.0506847  -0.0135358
   29  -0.0004666  -0.0019646  -0.0122034  -0.0507375   0.1703922   0.0455049
   30  -0.0074899  -0.0315362   0.0073742   0.0306596  -0.0600802  -0.0160450
   31   1.0000000   0.6830602   0.0113117   0.1141329   0.0000107   0.0056809
   32   0.6830602   1.0000000   0.1141329   0.3274834   0.0056809   0.0497564
   33   0.0113117   0.1141329   1.0000000   0.6830602   0.0006169   0.0326654
   34   0.1141329   0.3274834   0.6830602   1.0000000   0.0326654   0.1495025
   35   0.0000107   0.0056809   0.0006169   0.0326654   1.0000000   0.6830602
   36   0.0056809   0.0497564   0.0326654   0.1495025   0.6830602   1.0000000
   37   0.0006007   0.0322914   0.0000104   0.0056071   0.0126891   0.1198650
   38   0.0322914   0.1484258   0.0056071   0.0493483   0.1198650   0.3376792
           37          38
    1   0.0000810   0.0125010
    2   0.0000461   0.0145657
    3   0.0098418   0.1063220
    4   0.0880320   0.2739946
    5   0.0333899   0.1288437
    6   0.0133246   0.0514164
    7  -0.0235657  -0.0909343
    8   0.2088960   0.4096626
    9   0.0833620   0.1634800
   10  -0.1474329  -0.2891284
   11   0.0084680   0.0304851
   12  -0.0059765  -0.0215155
   13  -0.0009986  -0.0035950
   14  -0.0149764  -0.0539155
   15   0.0089203   0.0321134
   16   0.0342168   0.0879364
   17   0.0388153   0.1069129
   18   0.2805855   0.4854416
   19   0.3806846   0.7122658
   20   0.4317990   0.3518331
   21  -0.0551747  -0.0449568
   22  -0.0818289  -0.0666748
   23   0.4209358   0.5883092
   24  -0.0537866  -0.0751734
   25  -0.0797702  -0.1114886
   26  -0.0776031  -0.0211587
   27   0.0147063   0.0040097
   28  -0.1655895  -0.0451484
   29  -0.1150922  -0.0313802
   30   0.2987042   0.0814425
   31   0.0006007   0.0322914
   32   0.0322914   0.1484258
   33   0.0000104   0.0056071
   34   0.0056071   0.0493483
   35   0.0126891   0.1198650
   36   0.1198650   0.3376792
   37   1.0000000   0.6830602
   38   0.6830602   1.0000000
 Long-range K will be added via erf
 Coulomb attenuation parameter = 0.41 bohr**(-1)

 *************************************************************
 **                       Warning:                          **
 **  You have requested long-range HF exchange but are not  **
 **  using a Coulomb-attenuated (short-range) GGA exchange  **
 **  functional.  This is discouraged.  Instead, use a      **
 **  short-range exchange functional such as wPBE, muPBE,   **
 **  muB88, or Chai and Head-Gordon's LRC hybrid functionals**
 **  (wB97, wB97X, wB97X-D, wB97X-2(LP), and wB97X-2(TQZ)). **
 **  Consult the Q-Chem documentation regarding LRC-DFT.    **
 *************************************************************

 A restricted Kohn-Sham SCF calculation will be
 performed using Pulay DIIS extrapolation
 Exchange:  B88 + LR-HF      Correlation:  LYP
 Using SG-1 standard quadrature grid
 SCF converges when DIIS error is below 1.0E-05
 -------------------------------------------------------
 OpenMP Integral computing Module                
 -------------------------------------------------------
 -------------------------------------------------------
 OpenMP Integral computing Module                
 -------------------------------------------------------
 ---------------------------------------
  Cycle       Energy         DIIS Error
 ---------------------------------------
    1     -81.9182446249      1.16E-01
    2     -81.7261805571      1.01E-02
    3     -81.7444377025      4.78E-03
    4     -81.7487212447      4.87E-04
    5     -81.7487881833      2.07E-04
    6     -81.7487956465      4.98E-05
    7     -81.7487963115      6.87E-06 Convergence criterion met
 ---------------------------------------
 One-Electron    Energy =  -170.1936683990
 Total Coulomb   Energy =    70.9210968474
 Alpha Exchange  Energy =    -1.6085994664
 Beta  Exchange  Energy =    -1.6085994664
 DFT   Exchange  Energy =   -11.8255163092
 DFT Correlation Energy =    -0.4993715120
 Nuclear Repu.   Energy =    33.0658619942
 Nuclear Attr.   Energy =  -248.6221760344
 Kinetic         Energy =    78.4285076354
 SCF time:  CPU 1.90 s  wall 1.92 s
 Final Alpha MO Eigenvalues
            1           2           3           4           5           6
    1 -10.3293076 -10.3243232  -1.0676963  -0.8897898  -0.7707445  -0.7032230
            7           8           9          10          11          12
    1  -0.6570810  -0.5407737  -0.0568746   0.1062950   0.1134811   0.1617559
           13
    1   0.2148193
 Final Alpha MO Coefficients
            1           2           3           4           5           6
    1   0.5997926  -0.0344943  -0.0992546  -0.0812882   0.0022282  -0.0098133
    2   0.4330486  -0.0246350  -0.1233872  -0.1020924   0.0027877  -0.0119871
    3   0.0179046  -0.0024974   0.3428919   0.2914401  -0.0078929   0.0303971
    4  -0.0138993   0.0060207   0.2094714   0.2248245  -0.0106454  -0.0220540
    5   0.0002797  -0.0004570   0.0447029  -0.0766067   0.3155175   0.1739123
    6   0.0002778  -0.0006100   0.0543898  -0.1258366  -0.1728860   0.3045050
    7  -0.0003848   0.0007367  -0.0708502   0.1372671   0.0599809  -0.3366535
    8  -0.0005790   0.0011508  -0.0042341  -0.0072845   0.0312106   0.0132674
    9  -0.0006821   0.0017785  -0.0071902  -0.0129941  -0.0166674   0.0420359
   10   0.0009956  -0.0020705   0.0079397   0.0140977   0.0057152  -0.0419895
   11   0.0001468  -0.0004724   0.0001345  -0.0120041  -0.0027126   0.0145620
   12  -0.0005289   0.0007971  -0.0129658  -0.0047529  -0.0036678  -0.0002609
   13   0.0000759  -0.0002494  -0.0009497  -0.0082507   0.0017372   0.0082174
   14  -0.0002761   0.0005947  -0.0060884   0.0037360   0.0040617  -0.0091996
   15  -0.0000548   0.0001192   0.0020679   0.0069425  -0.0069584  -0.0044616
   16   0.0343744   0.5997520  -0.1026652   0.0775141  -0.0015992  -0.0088226
   17   0.0250871   0.4330091  -0.1276614   0.0974242  -0.0020229  -0.0107262
   18  -0.0004378   0.0182620   0.3544876  -0.2776914   0.0059738   0.0265874
   19   0.0042931  -0.0148169   0.2114771  -0.2114706   0.0081980  -0.0221460
   20   0.0004356  -0.0002884  -0.0397907  -0.0844416   0.3641246  -0.1651340
   21   0.0005790  -0.0003372  -0.0526274  -0.1254612  -0.1829029  -0.2976317
   22  -0.0007085   0.0004437   0.0642724   0.1461293   0.0599159   0.3462865
   23  -0.0011142   0.0008119   0.0046617  -0.0086504   0.0531324  -0.0117258
   24  -0.0016343   0.0009455   0.0076989  -0.0112098  -0.0276583  -0.0412549
   25   0.0018985  -0.0012186  -0.0089962   0.0135766   0.0094988   0.0439825
   26  -0.0004720   0.0001440  -0.0009484   0.0125493   0.0030266   0.0145426
   27   0.0007163  -0.0006244  -0.0126765   0.0038145   0.0052812  -0.0006717
   28  -0.0002556   0.0000624  -0.0014191   0.0081306  -0.0031415   0.0081207
   29   0.0005669  -0.0003356  -0.0053110  -0.0042653  -0.0061462  -0.0095674
   30   0.0001339   0.0000102   0.0031320  -0.0083923   0.0086825  -0.0052645
   31  -0.0006510  -0.0003786   0.0920209   0.1597227   0.1447474  -0.1460549
   32   0.0025342   0.0006093   0.0166662   0.0655068   0.0911802  -0.0954676
   33  -0.0004946  -0.0003674   0.0875950   0.1424909  -0.1523815  -0.0950429
   34   0.0023927   0.0004160   0.0178895   0.0620135  -0.0978991  -0.0726678
   35  -0.0004648  -0.0006659   0.0992230  -0.1550688  -0.1662821  -0.1447880
   36   0.0008491   0.0025717   0.0180977  -0.0635303  -0.0894494  -0.0926758
   37  -0.0004468  -0.0005969   0.0981635  -0.1456961   0.1792712  -0.0916744
   38   0.0007269   0.0024669   0.0193441  -0.0599176   0.0979190  -0.0681416
            7           8           9          10          11          12
    1  -0.0011761  -0.0017695  -0.0022830  -0.0783347   0.0186910  -0.0031141
    2  -0.0014693  -0.0022793  -0.0029529  -0.1004407   0.0223866  -0.0038878
    3   0.0045055   0.0072913   0.0085669   0.2308193   0.0028477   0.0085357
    4  -0.0068687   0.0076353   0.0271192   2.7528545  -1.1312409   0.1960337
    5   0.3712564   0.1197723   0.1190882  -0.1502195  -0.0549991   0.4893243
    6  -0.1554204   0.3326753   0.3409033  -0.1208054  -0.0353245  -0.2535606
    7   0.0167943   0.3630683   0.3722037   0.1413006   0.0503818   0.0743823
    8   0.0906023   0.0389495   0.1399372  -0.0770183  -0.7472376   0.6949666
    9  -0.0421501   0.1103481   0.4007905   0.1344086  -0.8929854  -0.3418810
   10   0.0086149   0.1192331   0.4330162  -0.1698044   1.0768891   0.0697601
   11  -0.0080649   0.0083128  -0.0122274   0.0075702   0.0190963   0.0140080
   12  -0.0134349  -0.0019768   0.0018204  -0.0028995  -0.0001716   0.0220235
   13   0.0075012  -0.0167616   0.0255193   0.0047149   0.0122498  -0.0105413
   14   0.0151774   0.0033567  -0.0041135  -0.0031162  -0.0080666  -0.0245511
   15  -0.0228503  -0.0057434   0.0093014  -0.0064769  -0.0122451   0.0334017
   16  -0.0020804   0.0008416   0.0002723   0.0026231  -0.0786947  -0.0031263
   17  -0.0026128   0.0010907   0.0003897   0.0020341  -0.1006807  -0.0043070
   18   0.0077187  -0.0034757  -0.0020610   0.0414927   0.2178754   0.0147946
   19   0.0010653  -0.0012238   0.0056248  -0.4149766   3.0739172   0.0842360
   20  -0.3393292   0.1124737  -0.1131240   0.0498113   0.0795089   0.4269505
   21   0.1272195   0.3497721  -0.3494483   0.0878144   0.1076080  -0.1909137
   22  -0.0220984   0.3512989  -0.3653693  -0.0962553  -0.1275428   0.0520218
   23  -0.0845813   0.0376836  -0.1345310   0.6583461  -0.1861540   0.5699483
   24   0.0369028   0.1147225  -0.4092126   0.7718935  -0.3350996  -0.1114086
   25  -0.0101636   0.1167420  -0.4261361  -0.9269172   0.4081232  -0.0514516
   26  -0.0073527  -0.0085187  -0.0128846   0.0215792   0.0038671  -0.0115530
   27  -0.0131377   0.0012875   0.0019178   0.0013768  -0.0024412  -0.0248922
   28   0.0071253   0.0165743   0.0259788   0.0111894   0.0014000   0.0132600
   29   0.0152778  -0.0024194  -0.0039042  -0.0108475  -0.0036136   0.0271461
   30  -0.0211176   0.0051681   0.0086318  -0.0105212  -0.0005076  -0.0376037
   31   0.1853226   0.0016526  -0.0083556  -0.0664918  -0.0023510  -0.0930304
   32   0.1258844   0.0039729  -0.0154146  -0.9222159  -0.3531452  -1.1316272
   33  -0.2215400  -0.0037295  -0.0047265  -0.0822824  -0.0119712   0.1086230
   34  -0.1588335  -0.0026664  -0.0073868  -1.1416376  -0.4394944   1.1298067
   35   0.1703989   0.0033915   0.0010622  -0.0270859  -0.0633309   0.0814833
   36   0.1096116   0.0035816   0.0022609  -0.5698422  -0.9144294   0.7962300
   37  -0.1992831  -0.0017884  -0.0024444  -0.0165884  -0.0585772  -0.1085900
   38  -0.1345957  -0.0026387  -0.0048345  -0.5597323  -0.9403267  -1.1450784
           13
    1  -0.0233674
    2  -0.0328383
    3   0.1199257
    4   0.0983343
    5  -0.1018130
    6  -0.1855810
    7   0.1848877
    8  -0.5636318
    9  -0.9300972
   10   1.0124702
   11   0.0229230
   12  -0.0029862
   13   0.0119072
   14  -0.0149562
   15  -0.0061348
   16   0.0188606
   17   0.0264861
   18  -0.0927825
   19  -0.3311811
   20  -0.0138287
   21  -0.0894494
   22   0.0844847
   23  -0.7019352
   24  -1.0844747
   25   1.3197487
   26  -0.0299585
   27   0.0080879
   28  -0.0177423
   29   0.0227890
   30   0.0115613
   31  -0.1155376
   32  -1.3855722
   33  -0.0957735
   34  -1.0957916
   35   0.1284222
   36   1.4351477
   37   0.1073512
   38   1.1374723
 Final Alpha density matrix.
            1           2           3           4           5           6
    1   0.3775061   0.2812644  -0.0472331  -0.0474237   0.0003216   0.0012390
    2   0.2812644   0.2139441  -0.0646568  -0.0547390   0.0004139   0.0016093
    3  -0.0472331  -0.0646568   0.2038988   0.1365234  -0.0016498  -0.0056715
    4  -0.0474237  -0.0547390   0.1365234   0.0953589  -0.0166955  -0.0181731
    5   0.0003216   0.0004139  -0.0016498  -0.0166955   0.2898407  -0.0073753
    6   0.0012390   0.0016093  -0.0056715  -0.0181731  -0.0073753   0.2762348
    7  -0.0016071  -0.0021062   0.0077187   0.0254725  -0.0035859  -0.0158361
    8   0.0003893   0.0006931  -0.0027389  -0.0034595   0.0508247  -0.0017943
    9   0.0007041   0.0011347  -0.0042451  -0.0040249   0.0002929   0.0601856
   10  -0.0010618  -0.0017019   0.0064408   0.0065228   0.0112561   0.0232123
   11   0.0009126   0.0010949  -0.0029602  -0.0028489   0.0006040   0.0104403
   12   0.0013422   0.0018535  -0.0058965  -0.0036504  -0.0066432   0.0018773
   13   0.0007631   0.0009320  -0.0025806  -0.0024357   0.0033442  -0.0035534
   14   0.0001900   0.0003273  -0.0012241  -0.0003469   0.0051596  -0.0055474
   15  -0.0007413  -0.0009098   0.0025056   0.0022811  -0.0125821   0.0007239
   16   0.0039025   0.0049673  -0.0137535  -0.0007129  -0.0135025  -0.0175010
   17   0.0049642   0.0061265  -0.0163268  -0.0022954  -0.0167041  -0.0216077
   18  -0.0137545  -0.0163340   0.0413375   0.0112097   0.0460692   0.0589203
   19  -0.0004774  -0.0019904   0.0102546  -0.0030098   0.0246458   0.0293896
   20   0.0137167   0.0169630  -0.0468474  -0.0243722  -0.0216478  -0.0146184
   21   0.0175256   0.0216349  -0.0590787  -0.0289329  -0.0130880   0.0505046
   22  -0.0225585  -0.0279190   0.0771277   0.0408885   0.1046780   0.2004973
   23  -0.0001895   0.0001325  -0.0018267  -0.0003863  -0.0112926   0.0142669
   24  -0.0007690  -0.0004348  -0.0006917   0.0009476   0.0127416   0.0264776
   25   0.0003650  -0.0001758   0.0029764   0.0010242   0.0194142   0.0499710
   26  -0.0013263  -0.0015078   0.0036463   0.0022627  -0.0012699   0.0005829
   27   0.0014308   0.0015394  -0.0033325  -0.0017528  -0.0040322   0.0001837
   28  -0.0007999  -0.0009216   0.0023028   0.0014666   0.0043652   0.0063219
   29   0.0012919   0.0014251  -0.0032443  -0.0019283   0.0018687  -0.0047818
   30   0.0005380   0.0006346  -0.0016556  -0.0010243  -0.0046142   0.0031237
   31  -0.0209595  -0.0260550   0.0733570   0.0556120   0.0811475  -0.1128463
   32  -0.0044952  -0.0064572   0.0218244   0.0184875   0.0551044  -0.0704138
   33  -0.0197007  -0.0245119   0.0688436   0.0556002  -0.1543030   0.0174285
   34  -0.0047093  -0.0066749   0.0220779   0.0213741  -0.1067644   0.0117664
   35   0.0033451   0.0044176  -0.0134734  -0.0102577   0.0023376  -0.0157857
   36   0.0043635   0.0052496  -0.0138920  -0.0082180   0.0024576  -0.0196226
   37   0.0033894   0.0044791  -0.0139213  -0.0107225  -0.0180298  -0.0048578
   38   0.0043513   0.0052779  -0.0142925  -0.0080494  -0.0257872  -0.0090465
            7           8           9          10          11          12
    1  -0.0016071   0.0003893   0.0007041  -0.0010618   0.0009126   0.0013422
    2  -0.0021062   0.0006931   0.0011347  -0.0017019   0.0010949   0.0018535
    3   0.0077187  -0.0027389  -0.0042451   0.0064408  -0.0029602  -0.0058965
    4   0.0254725  -0.0034595  -0.0040249   0.0065228  -0.0028489  -0.0036504
    5  -0.0035859   0.0508247   0.0002929   0.0112561   0.0006040  -0.0066432
    6  -0.0158361  -0.0017943   0.0601856   0.0232123   0.0104403   0.0018773
    7   0.2728966   0.0123696   0.0229321   0.0592839  -0.0038401  -0.0008085
    8   0.0123696   0.0109486   0.0006442   0.0049066  -0.0002121  -0.0013214
    9   0.0229321   0.0006442   0.0162223   0.0106891   0.0020687   0.0005551
   10   0.0592839   0.0049066   0.0106891   0.0163536   0.0001277  -0.0005336
   11  -0.0038401  -0.0002121   0.0020687   0.0001277   0.0004979   0.0001529
   12  -0.0008085  -0.0013214   0.0005551  -0.0005336   0.0001529   0.0003895
   13  -0.0096873   0.0002538  -0.0017358  -0.0023923   0.0000142  -0.0000249
   14   0.0057591   0.0015100  -0.0007273   0.0009433  -0.0002855  -0.0001612
   15  -0.0005778  -0.0026295   0.0001530  -0.0006201   0.0000073   0.0002853
   16   0.0214874   0.0002177   0.0006105  -0.0004862  -0.0013229   0.0014571
   17   0.0265691  -0.0000851   0.0002183   0.0000347  -0.0015081   0.0015672
   18  -0.0729445   0.0016463   0.0014015  -0.0025687   0.0036522  -0.0033873
   19  -0.0365029   0.0006364  -0.0000495  -0.0004272   0.0022111  -0.0017871
   20   0.1037980  -0.0164066   0.0150860   0.0179969   0.0012877   0.0039609
   21   0.2048623   0.0166285   0.0257793   0.0520672  -0.0004572  -0.0003740
   22   0.0296953   0.0168094   0.0508948   0.0300669   0.0062328  -0.0022348
   23   0.0178791  -0.0046479   0.0064260   0.0044728   0.0007844   0.0008519
   24   0.0524186   0.0064524   0.0099239   0.0154703   0.0002652  -0.0006553
   25   0.0304769   0.0044429   0.0148860   0.0121638   0.0015038  -0.0000904
   26  -0.0061405  -0.0007975  -0.0002249  -0.0015038   0.0000411   0.0000537
   27   0.0022107  -0.0009595   0.0006196   0.0000539   0.0000455   0.0003001
   28   0.0044317   0.0012478   0.0018272   0.0017816   0.0001092  -0.0001391
   29   0.0020208   0.0010241  -0.0011180   0.0001087  -0.0002152  -0.0000869
   30   0.0024409  -0.0014631   0.0011808   0.0006116   0.0002142   0.0002422
   31   0.0769693   0.0178817  -0.0189185   0.0117361  -0.0059052  -0.0049381
   32   0.0489757   0.0125908  -0.0113721   0.0071450  -0.0034038  -0.0025369
   33   0.0311350  -0.0276432   0.0049893   0.0034712  -0.0009136   0.0017544
   34   0.0222005  -0.0190425   0.0040423   0.0018233  -0.0002757   0.0019896
   35   0.0145466   0.0091689  -0.0088222   0.0056042  -0.0011283  -0.0021981
   36   0.0189743   0.0064379  -0.0059304   0.0039951  -0.0011972  -0.0010585
   37   0.0106648  -0.0131010   0.0025475   0.0016701   0.0015334   0.0014667
   38   0.0160012  -0.0097884   0.0015290   0.0012512   0.0005265   0.0015077
           13          14          15          16          17          18
    1   0.0007631   0.0001900  -0.0007413   0.0039025   0.0049642  -0.0137545
    2   0.0009320   0.0003273  -0.0009098   0.0049673   0.0061265  -0.0163340
    3  -0.0025806  -0.0012241   0.0025056  -0.0137535  -0.0163268   0.0413375
    4  -0.0024357  -0.0003469   0.0022811  -0.0007129  -0.0022954   0.0112097
    5   0.0033442   0.0051596  -0.0125821  -0.0135025  -0.0167041   0.0460692
    6  -0.0035534  -0.0055474   0.0007239  -0.0175010  -0.0216077   0.0589203
    7  -0.0096873   0.0057591  -0.0005778   0.0214874   0.0265691  -0.0729445
    8   0.0002538   0.0015100  -0.0026295   0.0002177  -0.0000851   0.0016463
    9  -0.0017358  -0.0007273   0.0001530   0.0006105   0.0002183   0.0014015
   10  -0.0023923   0.0009433  -0.0006201  -0.0004862   0.0000347  -0.0025687
   11   0.0000142  -0.0002855   0.0000073  -0.0013229  -0.0015081   0.0036522
   12  -0.0000249  -0.0001612   0.0002853   0.0014571   0.0015672  -0.0033873
   13   0.0004768  -0.0000362  -0.0001832  -0.0007940  -0.0009182   0.0022949
   14  -0.0000362   0.0003942  -0.0003399   0.0013077   0.0014463  -0.0032996
   15  -0.0001832  -0.0003399   0.0006759   0.0004887   0.0005780  -0.0015092
   16  -0.0007940   0.0013077   0.0004887   0.3775181   0.2813228  -0.0472441
   17  -0.0009182   0.0014463   0.0005780   0.2813228   0.2140423  -0.0647329
   18   0.0022949  -0.0032996  -0.0015092  -0.0472441  -0.0647329   0.2039219
   19   0.0014087  -0.0018385  -0.0010084  -0.0466631  -0.0536911   0.1328897
   20  -0.0044204  -0.0018479   0.0046422  -0.0009431  -0.0012169   0.0041126
   21  -0.0065867   0.0049515  -0.0032952  -0.0015563  -0.0020244   0.0069377
   22  -0.0043713  -0.0019434  -0.0023271   0.0021610   0.0028112  -0.0096134
   23  -0.0012035  -0.0008935   0.0013486  -0.0004743  -0.0008339   0.0032918
   24  -0.0019484   0.0011246  -0.0011873  -0.0007204  -0.0011794   0.0044840
   25  -0.0017581  -0.0000242  -0.0006252   0.0010265   0.0016540  -0.0062403
   26   0.0001097  -0.0002088   0.0002162   0.0010152   0.0012420  -0.0034406
   27  -0.0001357  -0.0000766   0.0002592   0.0012732   0.0017698  -0.0056568
   28  -0.0002289   0.0001154  -0.0002188   0.0007371   0.0009126  -0.0025651
   29   0.0001062   0.0003029  -0.0002904   0.0000932   0.0002038  -0.0008694
   30  -0.0002069  -0.0002699   0.0003641  -0.0008805  -0.0011099   0.0031718
   31  -0.0009915   0.0047863  -0.0033006   0.0033569   0.0044245  -0.0133338
   32  -0.0003047   0.0033155  -0.0026187   0.0042571   0.0050967  -0.0133084
   33  -0.0039038  -0.0031205   0.0077384   0.0033548   0.0044306  -0.0136579
   34  -0.0024425  -0.0020264   0.0051176   0.0044279   0.0053875  -0.0146060
   35   0.0009280   0.0020705  -0.0029815  -0.0214304  -0.0266265   0.0746832
   36   0.0003516   0.0018187  -0.0018927  -0.0044752  -0.0064724   0.0219390
   37  -0.0007978  -0.0026013   0.0029170  -0.0208096  -0.0258563   0.0723471
   38  -0.0008798  -0.0013674   0.0023376  -0.0044035  -0.0063389   0.0212841
           19          20          21          22          23          24
    1  -0.0004774   0.0137167   0.0175256  -0.0225585  -0.0001895  -0.0007690
    2  -0.0019904   0.0169630   0.0216349  -0.0279190   0.0001325  -0.0004348
    3   0.0102546  -0.0468474  -0.0590787   0.0771277  -0.0018267  -0.0006917
    4  -0.0030098  -0.0243722  -0.0289329   0.0408885  -0.0003863   0.0009476
    5   0.0246458  -0.0216478  -0.0130880   0.1046780  -0.0112926   0.0127416
    6   0.0293896  -0.0146184   0.0505046   0.2004973   0.0142669   0.0264776
    7  -0.0365029   0.1037980   0.2048623   0.0296953   0.0178791   0.0524186
    8   0.0006364  -0.0164066   0.0166285   0.0168094  -0.0046479   0.0064524
    9  -0.0000495   0.0150860   0.0257793   0.0508948   0.0064260   0.0099239
   10  -0.0004272   0.0179969   0.0520672   0.0300669   0.0044728   0.0154703
   11   0.0022111   0.0012877  -0.0004572   0.0062328   0.0007844   0.0002652
   12  -0.0017871   0.0039609  -0.0003740  -0.0022348   0.0008519  -0.0006553
   13   0.0014087  -0.0044204  -0.0065867  -0.0043713  -0.0012035  -0.0019484
   14  -0.0018385  -0.0018479   0.0049515  -0.0019434  -0.0008935   0.0011246
   15  -0.0010084   0.0046422  -0.0032952  -0.0023271   0.0013486  -0.0011873
   16  -0.0466631  -0.0009431  -0.0015563   0.0021610  -0.0004743  -0.0007204
   17  -0.0536911  -0.0012169  -0.0020244   0.0028112  -0.0008339  -0.0011794
   18   0.1328897   0.0041126   0.0069377  -0.0096134   0.0032918   0.0044840
   19   0.0902406   0.0155912   0.0202088  -0.0249506   0.0033574   0.0045635
   20   0.0155912   0.2963646  -0.0085909  -0.0032536   0.0547667  -0.0022381
   21   0.0202088  -0.0085909   0.2790740  -0.0156780  -0.0029688   0.0631590
   22  -0.0249506  -0.0032536  -0.0156780   0.2728890   0.0132670   0.0224015
   23   0.0033574   0.0547667  -0.0029688   0.0132670   0.0116331   0.0003515
   24   0.0045635  -0.0022381   0.0631590   0.0224015   0.0003515   0.0171785
   25  -0.0057972   0.0119877   0.0234837   0.0584395   0.0050854   0.0107149
   26  -0.0031532  -0.0007847  -0.0103218   0.0041604   0.0001788  -0.0020794
   27  -0.0034325   0.0068195  -0.0017979   0.0005683   0.0013548  -0.0005976
   28  -0.0022398  -0.0036688   0.0039158   0.0093861  -0.0003168   0.0018147
   29  -0.0000330  -0.0055426   0.0058842  -0.0058340  -0.0015865   0.0008566
   30   0.0025964   0.0123620  -0.0000119  -0.0000457   0.0025910  -0.0000914
   31  -0.0096970  -0.0030237   0.0162685  -0.0161641  -0.0071614   0.0079692
   32  -0.0073354   0.0005027   0.0200472  -0.0183401  -0.0050250   0.0059083
   33  -0.0109808   0.0194468   0.0041830  -0.0120044   0.0107917  -0.0013902
   34  -0.0086859   0.0240020   0.0096744  -0.0182461   0.0085290  -0.0010226
   35   0.0558044  -0.0849318   0.1106045  -0.0789580  -0.0196180   0.0197519
   36   0.0186591  -0.0494143   0.0661591  -0.0467358  -0.0121670   0.0116058
   37   0.0548665   0.1562339  -0.0183692  -0.0322101   0.0291062  -0.0063464
   38   0.0188999   0.0965721  -0.0091758  -0.0231941   0.0178962  -0.0043450
           25          26          27          28          29          30
    1   0.0003650  -0.0013263   0.0014308  -0.0007999   0.0012919   0.0005380
    2  -0.0001758  -0.0015078   0.0015394  -0.0009216   0.0014251   0.0006346
    3   0.0029764   0.0036463  -0.0033325   0.0023028  -0.0032443  -0.0016556
    4   0.0010242   0.0022627  -0.0017528   0.0014666  -0.0019283  -0.0010243
    5   0.0194142  -0.0012699  -0.0040322   0.0043652   0.0018687  -0.0046142
    6   0.0499710   0.0005829   0.0001837   0.0063219  -0.0047818   0.0031237
    7   0.0304769  -0.0061405   0.0022107   0.0044317   0.0020208   0.0024409
    8   0.0044429  -0.0007975  -0.0009595   0.0012478   0.0010241  -0.0014631
    9   0.0148860  -0.0002249   0.0006196   0.0018272  -0.0011180   0.0011808
   10   0.0121638  -0.0015038   0.0000539   0.0017816   0.0001087   0.0006116
   11   0.0015038   0.0000411   0.0000455   0.0001092  -0.0002152   0.0002142
   12  -0.0000904   0.0000537   0.0003001  -0.0001391  -0.0000869   0.0002422
   13  -0.0017581   0.0001097  -0.0001357  -0.0002289   0.0001062  -0.0002069
   14  -0.0000242  -0.0002088  -0.0000766   0.0001154   0.0003029  -0.0002699
   15  -0.0006252   0.0002162   0.0002592  -0.0002188  -0.0002904   0.0003641
   16   0.0010265   0.0010152   0.0012732   0.0007371   0.0000932  -0.0008805
   17   0.0016540   0.0012420   0.0017698   0.0009126   0.0002038  -0.0011099
   18  -0.0062403  -0.0034406  -0.0056568  -0.0025651  -0.0008694   0.0031718
   19  -0.0057972  -0.0031532  -0.0034325  -0.0022398  -0.0000330   0.0025964
   20   0.0119877  -0.0007847   0.0068195  -0.0036688  -0.0055426   0.0123620
   21   0.0234837  -0.0103218  -0.0017979   0.0039158   0.0058842  -0.0000119
   22   0.0584395   0.0041604   0.0005683   0.0093861  -0.0058340  -0.0000457
   23   0.0050854   0.0001788   0.0013548  -0.0003168  -0.0015865   0.0025910
   24   0.0107149  -0.0020794  -0.0005976   0.0018147   0.0008566  -0.0000914
   25   0.0160270  -0.0000735   0.0004724   0.0023124  -0.0009255   0.0005270
   26  -0.0000735   0.0005059   0.0001513   0.0000185  -0.0002983  -0.0000474
   27   0.0004724   0.0001513   0.0003787  -0.0000455  -0.0001782   0.0002619
   28   0.0023124   0.0000185  -0.0000455   0.0004695  -0.0000169  -0.0002076
   29  -0.0009255  -0.0002983  -0.0001782  -0.0000169   0.0004154  -0.0003189
   30   0.0005270  -0.0000474   0.0002619  -0.0002076  -0.0003189   0.0006560
   31  -0.0053997  -0.0011452  -0.0021275   0.0008753   0.0021648  -0.0029317
   32  -0.0034049  -0.0012667  -0.0010630   0.0004095   0.0018999  -0.0018408
   33  -0.0026654   0.0015226   0.0015978  -0.0008991  -0.0026029   0.0029149
   34  -0.0021380   0.0005977   0.0016263  -0.0009803  -0.0014815   0.0024089
   35  -0.0122816  -0.0059306  -0.0048644  -0.0007846   0.0051368  -0.0026503
   36  -0.0066486  -0.0032694  -0.0023183  -0.0001735   0.0032769  -0.0019950
   37  -0.0033738  -0.0012315   0.0018241  -0.0040811  -0.0031650   0.0077684
   38  -0.0019961  -0.0004527   0.0018530  -0.0023784  -0.0018474   0.0046012
           31          32          33          34          35          36
    1  -0.0209595  -0.0044952  -0.0197007  -0.0047093   0.0033451   0.0043635
    2  -0.0260550  -0.0064572  -0.0245119  -0.0066749   0.0044176   0.0052496
    3   0.0733570   0.0218244   0.0688436   0.0220779  -0.0134734  -0.0138920
    4   0.0556120   0.0184875   0.0556002   0.0213741  -0.0102577  -0.0082180
    5   0.0811475   0.0551044  -0.1543030  -0.1067644   0.0023376   0.0024576
    6  -0.1128463  -0.0704138   0.0174285   0.0117664  -0.0157857  -0.0196226
    7   0.0769693   0.0489757   0.0311350   0.0222005   0.0145466   0.0189743
    8   0.0178817   0.0125908  -0.0276432  -0.0190425   0.0091689   0.0064379
    9  -0.0189185  -0.0113721   0.0049893   0.0040423  -0.0088222  -0.0059304
   10   0.0117361   0.0071450   0.0034712   0.0018233   0.0056042   0.0039951
   11  -0.0059052  -0.0034038  -0.0009136  -0.0002757  -0.0011283  -0.0011972
   12  -0.0049381  -0.0025369   0.0017544   0.0019896  -0.0021981  -0.0010585
   13  -0.0009915  -0.0003047  -0.0039038  -0.0024425   0.0009280   0.0003516
   14   0.0047863   0.0033155  -0.0031205  -0.0020264   0.0020705   0.0018187
   15  -0.0033006  -0.0026187   0.0077384   0.0051176  -0.0029815  -0.0018927
   16   0.0033569   0.0042571   0.0033548   0.0044279  -0.0214304  -0.0044752
   17   0.0044245   0.0050967   0.0044306   0.0053875  -0.0266265  -0.0064724
   18  -0.0133338  -0.0133084  -0.0136579  -0.0146060   0.0746832   0.0219390
   19  -0.0096970  -0.0073354  -0.0109808  -0.0086859   0.0558044   0.0186591
   20  -0.0030237   0.0005027   0.0194468   0.0240020  -0.0849318  -0.0494143
   21   0.0162685   0.0200472   0.0041830   0.0096744   0.1106045   0.0661591
   22  -0.0161641  -0.0183401  -0.0120044  -0.0182461  -0.0789580  -0.0467358
   23  -0.0071614  -0.0050250   0.0107917   0.0085290  -0.0196180  -0.0121670
   24   0.0079692   0.0059083  -0.0013902  -0.0010226   0.0197519   0.0116058
   25  -0.0053997  -0.0034049  -0.0026654  -0.0021380  -0.0122816  -0.0066486
   26  -0.0011452  -0.0012667   0.0015226   0.0005977  -0.0059306  -0.0032694
   27  -0.0021275  -0.0010630   0.0015978   0.0016263  -0.0048644  -0.0023183
   28   0.0008753   0.0004095  -0.0008991  -0.0009803  -0.0007846  -0.0001735
   29   0.0021648   0.0018999  -0.0026029  -0.0014815   0.0051368   0.0032769
   30  -0.0029317  -0.0018408   0.0029149   0.0024089  -0.0026503  -0.0019950
   31   0.1106108   0.0624721  -0.0184178  -0.0214475   0.0130256   0.0124242
   32   0.0624721   0.0378663  -0.0219314  -0.0176275   0.0116190   0.0106478
   33  -0.0184178  -0.0219314   0.1093241   0.0674245  -0.0120674  -0.0093267
   34  -0.0214475  -0.0176275   0.0674245   0.0442716  -0.0081165  -0.0055409
   35   0.0130256   0.0116190  -0.0120674  -0.0081165   0.1115528   0.0586272
   36   0.0124242   0.0106478  -0.0093267  -0.0055409   0.0586272   0.0329885
   37  -0.0118334  -0.0079054   0.0133899   0.0134885  -0.0181663  -0.0183591
   38  -0.0086136  -0.0051197   0.0145390   0.0133840  -0.0181512  -0.0130428
           37          38
    1   0.0033894   0.0043513
    2   0.0044791   0.0052779
    3  -0.0139213  -0.0142925
    4  -0.0107225  -0.0080494
    5  -0.0180298  -0.0257872
    6  -0.0048578  -0.0090465
    7   0.0106648   0.0160012
    8  -0.0131010  -0.0097884
    9   0.0025475   0.0015290
   10   0.0016701   0.0012512
   11   0.0015334   0.0005265
   12   0.0014667   0.0015077
   13  -0.0007978  -0.0008798
   14  -0.0026013  -0.0013674
   15   0.0029170   0.0023376
   16  -0.0208096  -0.0044035
   17  -0.0258563  -0.0063389
   18   0.0723471   0.0212841
   19   0.0548665   0.0188999
   20   0.1562339   0.0965721
   21  -0.0183692  -0.0091758
   22  -0.0322101  -0.0231941
   23   0.0291062   0.0178962
   24  -0.0063464  -0.0043450
   25  -0.0033738  -0.0019961
   26  -0.0012315  -0.0004527
   27   0.0018241   0.0018530
   28  -0.0040811  -0.0023784
   29  -0.0031650  -0.0018474
   30   0.0077684   0.0046012
   31  -0.0118334  -0.0086136
   32  -0.0079054  -0.0051197
   33   0.0133899   0.0145390
   34   0.0134885   0.0133840
   35  -0.0181663  -0.0181512
   36  -0.0183591  -0.0130428
   37   0.1111233   0.0612551
   38   0.0612551   0.0363253
 SCF   energy in the final basis set = -81.7487963115
 Total energy in the final basis set = -81.7487963115
 
 --------------------------------------------------------------
 
                    Orbital Energies (a.u.)
 --------------------------------------------------------------
 
 Alpha MOs
 -- Occupied --
-10.329 -10.324  -1.068  -0.890  -0.771  -0.703  -0.657  -0.541
 -- Virtual --
 -0.057   0.106   0.113   0.162   0.215   0.239   0.266   0.286
  0.289   0.377   0.495   0.505   0.521   0.862   0.934   0.949
  1.039   1.313   1.332   1.395   1.669   1.752   1.841   1.923
  2.182   2.214   2.400   2.530  22.413  22.765
 --------------------------------------------------------------
 
          Ground-State Mulliken Net Atomic Charges

     Atom                 Charge (a.u.)
  ----------------------------------------
      1 C                    -0.371137
      2 C                    -0.402449
      3 H                     0.194066
      4 H                     0.176051
      5 H                     0.206152
      6 H                     0.197317
  ----------------------------------------
  Sum of atomic charges =    -0.000000

 -----------------------------------------------------------------
                    Cartesian Multipole Moments
 -----------------------------------------------------------------
    Charge (ESU x 10^10)
                -0.0000
    Dipole Moment (Debye)
         X       0.0010      Y      -0.0284      Z      -0.0304
       Tot       0.0417
    Quadrupole Moments (Debye-Ang)
        XX     -11.2530     XY      -1.7433     YY     -12.8538
        XZ      -1.7196     YZ      -2.4046     ZZ     -14.1725
    Octopole Moments (Debye-Ang^2)
       XXX   -1368.5094    XXY    -129.0149    XYY    -522.8727
       YYY    -117.0654    XXZ    -313.0009    XYZ    -110.3908
       YYZ    -264.6228    XZZ    -592.2870    YZZ    -123.4351
       ZZZ    -803.7629
    Hexadecapole Moments (Debye-Ang^3)
      XXXX -110718.1512   XXXY   -8979.1239   XXYY  -21385.3182
      XYYY   -4751.0615   YYYY    -746.2541   XXXZ  -31513.5602
      XXYZ   -5674.3766   XYYZ  -10762.7270   YYYZ   -2351.8638
      XXZZ  -29152.1559   XYZZ   -5279.9261   YYZZ   -5569.9665
      XZZZ  -33051.3304   YZZZ   -4708.8370   ZZZZ  -31305.2603
 -----------------------------------------------------------------
Archival summary:
1\1\q72\SP\ProcedureUnspecified\BasisUnspecified\24\junyiwan\ThuJun300:28:222021ThuJun300:28:222021\0\\#,ProcedureUnspecified,BasisUnspecified,\\0,1\C\H,1,1.05737\H,1,1.06817,2,121.034\C,1,1.36469,2,120.51,3,179.438,0\H,4,1.07799,1,122.444,2,177.153,0\H,4,1.11071,1,119.435,2,1.08994,0\\\@

 Total job time:  2.03s(wall), 1.99s(cpu) 
 Thu Jun  3 00:28:22 2021

        *************************************************************
        *                                                           *
        *  Thank you very much for using Q-Chem.  Have a nice day.  *
        *                                                           *
        *************************************************************


Copy Fragment Subsystem from /scratch/junyiwang/qchem/qchem13697/Frg1s1/
Copy MO Coefficient from /scratch/junyiwang/qchem/qchem13697/Frg1s1/
Alpha electrons: 8
 Beta electrons: 8

-----------------------------------------------------------------
 SCF on fragment 2 out of 2 in state 1
-----------------------------------------------------------------

/opt/qchem/cvs/bin/xr.csh /scratch/junyiwang/qchem/qchem13697/Frg2s1.input  stdout  Frg2s1
/opt/qchem/cvs/bin/xr.csh /scratch/junyiwang/qchem/qchem13697/Frg2s1.input stdout Frg2s1
QCSCRATCH is /scratch/junyiwang/qchem/qchem13697/Frg2s1
QCFILEPREF is /scratch/junyiwang/qchem/qchem13697/Frg2s1/
-- Serial fragment SCF job
qcprog.exe.5.release /scratch/junyiwang/qchem/qchem13697/Frg2s1.input /scratch/junyiwang/qchem/qchem13697/Frg2s1/
q72 192.168.0
Q-Chem Developer Version! Running on 192.168.0.*
                  Welcome to Q-Chem
     A Quantum Leap Into The Future Of Chemistry


 Q-Chem 5.0, Q-Chem, Inc., Pleasanton, CA (2017)

 Yihan Shao,  Zhengting Gan,  E. Epifanovsky,  A. T. B. Gilbert,  M. Wormit,  
 J. Kussmann,  A. W. Lange,  A. Behn,  Jia Deng,  Xintian Feng,  D. Ghosh,  
 M. Goldey,  P. R. Horn,  L. D. Jacobson,  I. Kaliman,  T. Kus,  A. Landau,  
 Jie Liu,  E. I. Proynov,  R. M. Richard,  R. P. Steele,  E. J. Sundstrom,  
 H. L. Woodcock III,  P. M. Zimmerman,  D. Zuev,  B. Albrecht,  E. Alguire,  
 S. A. Baeppler,  Z. Benda,  Y. A. Bernard,  E. J. Berquist,  K. B. Bravaya,  
 D. Casanova,  Chun-Min Chang,  Yunqing Chen,  A. Chien,  K. D. Closser,  
 M. P. Coons,  S. Dasgupta,  M. Diedenhofen,  Hainam Do,  R. G. Edgar,  
 Po-Tung Fang,  S. Fatehi,  Qingguo Feng,  Qinghui Ge,  A. Ghysels,  
 J. Gomes,  J. Gonthier,  A. Gunina,  M. W. D. Hanson-Heine,  
 P. H. P. Harbach,  A. W. Hauser,  J. E. Herr,  E. G. Hohenstein,  
 Z. C. Holden,  Kerwin Hui,  T.-C. Jagau,  Hyunjun Ji,  B. Kaduk,  
 K. Khistyaev,  Jaehoon Kim,  P. Klunzinger,  K. Koh,  D. Kosenkov,  
 T. Kowalczyk,  C. M. Krauter,  A. Kunitsa,  Ka Un Lao,  A. Laurent,  
 K. V. Lawler,  Joonho Lee,  D. Lefrancois,  S. Lehtola,  D. S. Levine,  
 Yi-Pei Li,  You-Sheng Lin,  Fenglai Liu,  E. Livshits,  A. Luenser,  
 P. Manohar,  E. Mansoor,  S. F. Manzer,  Shan-Ping Mao,  Yuezhi Mao,  
 N. Mardirossian,  A. V. Marenich,  L. A. Martinez-Martinez,  S. A. Maurer,  
 N. J. Mayhall,  S. C. McKenzie,  J.-M. Mewes,  A. F. Morrison,  K. Nanda,  
 T. S. Nguyen-Beck,  R. Olivares-Amaya,  J. A. Parkhill,  T. M. Perrine,  
 F. Plasser,  S. Prager,  A. Prociuk,  D. R. Rehn,  F. Rob,  M. Schneider,  
 N. Sergueev,  S. M. Sharada,  S. Sharma,  D. W. Small,  T. Stauch,  
 T. Stein,  Yu-Chuan Su,  A. J. W. Thom,  T. Tsuchimochi,  L. Vogt,  
 O. Vydrov,  M. A. Watson,  J. Wenzel,  M. de Wergifosse,  T. A. Wesolowski,  
 A. White,  J. Witte,  A. Yamada,  Jun Yang,  K. Yao,  S. Yeganeh,  
 S. R. Yost,  Zhi-Qiang You,  A. Zech,  Igor Ying Zhang,  Xing Zhang,  
 Yan Zhao,  Ying Zhu,  B. R. Brooks,  G. K. L. Chan,  C. J. Cramer,  
 M. S. Gordon,  W. J. Hehre,  A. Klamt,  M. W. Schmidt,  C. D. Sherrill,  
 D. G. Truhlar,  A. Aspuru-Guzik,  R. Baer,  A. T. Bell,  N. A. Besley,  
 Jeng-Da Chai,  A. Dreuw,  B. D. Dunietz,  T. R. Furlani,  Chao-Ping Hsu,  
 Yousung Jung,  Jing Kong,  D. S. Lambrecht,  WanZhen Liang,  C. Ochsenfeld,  
 V. A. Rassolov,  L. V. Slipchenko,  J. E. Subotnik,  T. Van Voorhis,  
 J. M. Herbert,  A. I. Krylov,  P. M. W. Gill,  M. Head-Gordon

 Contributors to earlier versions of Q-Chem not listed above: 
 R. D. Adamson,  B. Austin,  J. Baker,  G. J. O. Beran,  K. Brandhorst,  
 S. T. Brown,  E. F. C. Byrd,  A. K. Chakraborty,  C.-L. Cheng,  
 Siu Hung Chien,  D. M. Chipman,  D. L. Crittenden,  H. Dachsel,  
 R. A. DiStasio Jr.,  R. J. Doerksen,  A. D. Dutoi,  L. Fusti-Molnar,  
 W. A. Goddard III,  A. Golubeva-Zadorozhnaya,  S. R. Gwaltney,  G. Hawkins,  
 A. Heyden,  S. Hirata,  G. Kedziora,  F. J. Keil,  C. Kelley,  Jihan Kim,  
 R. A. King,  R. Z. Khaliullin,  P. P. Korambath,  W. Kurlancheek,  
 A. M. Lee,  M. S. Lee,  S. V. Levchenko,  Ching Yeh Lin,  D. Liotard,  
 R. C. Lochan,  I. Lotan,  P. E. Maslen,  N. Nair,  D. P. O'Neill,  
 D. Neuhauser,  E. Neuscamman,  C. M. Oana,  R. Olson,  B. Peters,  
 R. Peverati,  P. A. Pieniazek,  Y. M. Rhee,  J. Ritchie,  M. A. Rohrdanz,  
 E. Rosta,  N. J. Russ,  H. F. Schaefer III,  N. E. Schultz,  N. Shenvi,  
 A. C. Simmonett,  A. Sodt,  D. Stuck,  K. S. Thanthiriwatte,  V. Vanovschi,  
 Tao Wang,  A. Warshel,  C. F. Williams,  Q. Wu,  X. Xu,  W. Zhang

 Please cite Q-Chem as follows:
 Y. Shao et al., Mol. Phys. 113, 184-215 (2015)
 DOI: 10.1080/00268976.2014.952696

 Q-Chem 5.0.0 for Intel X86 EM64T Linux

 Parts of Q-Chem use Armadillo 5.200.1 (Boston Tea Smuggler).
 http://arma.sourceforge.net/

 Q-Chem begins on Thu Jun  3 00:28:22 2021  

Host: q72
0

     Scratch files written to /scratch/junyiwang/qchem/qchem13697/Frg2s1//

Checking the input file for inconsistencies... 	...done.

--------------------------------------------------------------
User input:
--------------------------------------------------------------
$molecule
0 1
 6	25.1950312000	5.4835099000	23.2523656000
 6	25.3026819000	5.7128525000	21.9405818000
 1	26.0881257000	5.3210348000	23.8717365000
 1	24.2439175000	5.4128242000	23.7472582000
 1	24.4005251000	5.8669716000	21.3527584000
 1	26.2846470000	5.7342005000	21.4722753000
$end

$rem
METHOD		BLYP
BASIS		DZ*
LRC_DFT		TRUE
OMEGA		410
MAX_SCF_CYCLES		200
SCF_PRINT_FRGM		TRUE
SCF_FINAL_PRINT		2
SYM_IGNORE		TRUE
SCF_CONVERGENCE		5
!required keywords
JOBTYPE		SP
SYM_IGNORE		TRUE
SUBSYSTEM		TRUE
SAVE_SUBSYSTEM		TRUE
$end
--------------------------------------------------------------
 ----------------------------------------------------------------
             Standard Nuclear Orientation (Angstroms)
    I     Atom           X                Y                Z
 ----------------------------------------------------------------
    1      C      25.1950312000     5.4835099000    23.2523656000
    2      C      25.3026819000     5.7128525000    21.9405818000
    3      H      26.0881257000     5.3210348000    23.8717365000
    4      H      24.2439175000     5.4128242000    23.7472582000
    5      H      24.4005251000     5.8669716000    21.3527584000
    6      H      26.2846470000     5.7342005000    21.4722753000
 ----------------------------------------------------------------
 Nuclear Repulsion Energy =    33.3069108723 hartrees
 There are        8 alpha and        8 beta electrons
 Requested basis set is DZ(d)
 There are 22 shells and 38 basis functions

 Total QAlloc Memory Limit   2000 MB
 Mega-Array Size        61 MB
 MEM_STATIC part        62 MB

                       Distance Matrix (Angstroms)
             C (  1)   C (  2)   H (  3)   H (  4)   H (  5)
   C (  2)  1.336025
   H (  3)  1.098925  2.121274
   H (  4)  1.074492  2.115438  1.850682
   H (  5)  2.094467  1.087739  3.080794  2.442213
   H (  6)  2.102101  1.088128  2.442691  3.073013  1.892572
 
 A cutoff of  1.0D-08 yielded    253 shell pairs
 There are       773 function pairs (       862 Cartesian)
 Smallest overlap matrix eigenvalue = 4.25E-03

 Scale SEOQF with 1.000000e-03/1.000000e-02/1.000000e-03

 Standard Electronic Orientation quadrupole field applied
 Nucleus-field energy     =    -0.0000000015 hartrees
 Guess from superposition of atomic densities
 Warning:  Energy on first SCF cycle will be non-variational
 Overlap Matrix
            1           2           3           4           5           6
    1   1.0000000   0.8444081   0.3324251   0.1580343   0.0000000  -0.0000000
    2   0.8444081   1.0000000   0.4262148   0.1940327   0.0000000   0.0000000
    3   0.3324251   0.4262148   1.0000000   0.7826642   0.0000000   0.0000000
    4   0.1580343   0.1940327   0.7826642   1.0000000   0.0000000   0.0000000
    5   0.0000000   0.0000000   0.0000000   0.0000000   1.0000000   0.0000000
    6  -0.0000000   0.0000000   0.0000000   0.0000000   0.0000000   1.0000000
    7   0.0000000  -0.0000000   0.0000000   0.0000000   0.0000000   0.0000000
    8   0.0000000   0.0000000   0.0000000   0.0000000   0.5387949   0.0000000
    9   0.0000000   0.0000000   0.0000000   0.0000000   0.0000000   0.5387949
   10  -0.0000000  -0.0000000   0.0000000   0.0000000   0.0000000   0.0000000
   11   0.0000000   0.0000000   0.0000000   0.0000000   0.0000000  -0.0000000
   12   0.0000000   0.0000000   0.0000000   0.0000000   0.0000000   0.0000000
   13   0.0000000   0.0000000   0.0000000   0.0000000   0.0000000  -0.0000000
   14   0.0000000   0.0000000   0.0000000   0.0000000   0.0000000   0.0000000
   15   0.0000000   0.0000000   0.0000000   0.0000000  -0.0000000  -0.0000000
   16   0.0001143   0.0000236   0.0212923   0.0622065   0.0051716   0.0110178
   17   0.0000236   0.0000001   0.0238106   0.0751223   0.0061927   0.0131931
   18   0.0212923   0.0238106   0.2056779   0.3709898   0.0287729   0.0612986
   19   0.0622065   0.0751223   0.3709898   0.6134945   0.0252976   0.0538949
   20  -0.0051716  -0.0061927  -0.0287729  -0.0252976   0.1932186  -0.0076025
   21  -0.0110178  -0.0131931  -0.0612986  -0.0538949  -0.0076025   0.1805905
   22   0.0630194   0.0754616   0.3506132   0.3082657   0.0434845   0.0926409
   23  -0.0084893  -0.0103996  -0.0426481  -0.0510742   0.3009672  -0.0048139
   24  -0.0180859  -0.0221558  -0.0908590  -0.1088101  -0.0048139   0.2929711
   25   0.1034470   0.1267255   0.5196912   0.6223673   0.0275342   0.0586598
   26   0.0014204   0.0016890   0.0060544   0.0022016  -0.0369411  -0.0157751
   27  -0.0173078  -0.0205810  -0.0737765  -0.0268274  -0.0114780   0.1922286
   28   0.0560897   0.0666971   0.2390884   0.0869400   0.0474631   0.1011170
   29  -0.0081241  -0.0096605  -0.0346298  -0.0125925   0.2112940  -0.0114780
   30  -0.0011796  -0.0014027  -0.0050283  -0.0018285  -0.0185641   0.0362164
   31   0.0300360   0.0337861   0.2615770   0.3694082   0.3454971  -0.0628541
   32   0.0844848   0.1026324   0.4705632   0.6984532   0.2928305  -0.0532728
   33   0.0333210   0.0377352   0.2766115   0.3783653  -0.3888474  -0.0288987
   34   0.0872237   0.1060287   0.4823802   0.7094367  -0.3194013  -0.0237375
   35   0.0000819   0.0000467   0.0098981   0.0882546  -0.0163749   0.0079032
   36   0.0125432   0.0146159   0.1066013   0.2744472  -0.0630374   0.0304245
   37   0.0000773   0.0000437   0.0095810   0.0869925   0.0218437   0.0050256
   38   0.0123047   0.0143316   0.1050180   0.2718757   0.0852343   0.0196101
            7           8           9          10          11          12
    1   0.0000000   0.0000000   0.0000000  -0.0000000   0.0000000   0.0000000
    2  -0.0000000   0.0000000   0.0000000  -0.0000000   0.0000000   0.0000000
    3   0.0000000   0.0000000   0.0000000   0.0000000   0.0000000   0.0000000
    4   0.0000000   0.0000000   0.0000000   0.0000000   0.0000000   0.0000000
    5   0.0000000   0.5387949   0.0000000   0.0000000   0.0000000   0.0000000
    6   0.0000000   0.0000000   0.5387949   0.0000000  -0.0000000   0.0000000
    7   1.0000000   0.0000000   0.0000000   0.5387949   0.0000000   0.0000000
    8   0.0000000   1.0000000   0.0000000   0.0000000   0.0000000   0.0000000
    9   0.0000000   0.0000000   1.0000000   0.0000000  -0.0000000   0.0000000
   10   0.5387949   0.0000000   0.0000000   1.0000000   0.0000000   0.0000000
   11   0.0000000   0.0000000  -0.0000000   0.0000000   1.0000000   0.0000000
   12   0.0000000   0.0000000   0.0000000   0.0000000   0.0000000   1.0000000
   13   0.0000000   0.0000000   0.0000000   0.0000000   0.0000000   0.0000000
   14  -0.0000000   0.0000000   0.0000000  -0.0000000   0.0000000   0.0000000
   15   0.0000000  -0.0000000   0.0000000   0.0000000   0.0000000   0.0000000
   16  -0.0630194   0.0084893   0.0180859  -0.1034470   0.0014204  -0.0173078
   17  -0.0754616   0.0103996   0.0221558  -0.1267255   0.0016890  -0.0205810
   18  -0.3506132   0.0426481   0.0908590  -0.5196912   0.0060544  -0.0737765
   19  -0.3082657   0.0510742   0.1088101  -0.6223673   0.0022016  -0.0268274
   20   0.0434845   0.3009672  -0.0048139   0.0275342   0.0369411   0.0114780
   21   0.0926409  -0.0048139   0.2929711   0.0586598   0.0157751  -0.1922286
   22  -0.3330962   0.0275342   0.0586598  -0.0322929   0.0114780  -0.1019822
   23   0.0275342   0.6907366  -0.0070123   0.0401087   0.0198323   0.0020049
   24   0.0586598  -0.0070123   0.6790889   0.0854489   0.0090358  -0.1101058
   25  -0.0322929   0.0401087   0.0854489   0.2052813   0.0020049  -0.0044343
   26  -0.0114780  -0.0198323  -0.0090358  -0.0020049   0.0762528   0.0297637
   27   0.1019822  -0.0020049   0.1101058   0.0044343   0.0297637  -0.2839921
   28  -0.2030608   0.0119166   0.0253875   0.0528969   0.0228100  -0.1501153
   29   0.0478692   0.1134361  -0.0020049   0.0020814   0.0715162   0.0218580
   30   0.0095327  -0.0095229   0.0197057   0.0016651  -0.0003326  -0.0697537
   31   0.2396061   0.3526191  -0.0641498   0.2445453  -0.0739816  -0.0513070
   32   0.2030812   0.4962725  -0.0902838   0.3441705  -0.0214144  -0.0148511
[...]
    6  -0.0000000  -0.0000000  -0.0000000  -0.0000000   0.0000000   0.0000000
    7   0.0000000   0.0000000   0.0000000   0.0000000   0.0000000   0.0000000
    8  -0.0000000  -0.0000000  -0.0000000  -0.0000000  -0.0000000  -0.0000000
    9  -0.0000000  -0.0000000   0.0000000   0.0000000   0.0000000   0.0000000
   10   0.0000000   0.0000000  -0.0000000   0.0000000   0.0000000  -0.0000000
   11  -0.0000000  -0.0000000  -0.0000000  -0.0000000  -0.0000000  -0.0000000
   12  -0.0000000  -0.0000000  -0.0000000   0.0000000  -0.0000000   0.0000000
   13   0.0000000  -0.0000000  -0.0000000  -0.0000000  -0.0000000  -0.0000000
   14  -0.0000000   0.0000000  -0.0000000   0.0000000  -0.0000000   0.0000000
   15   0.0000000   0.0000000   0.0000000   0.0000000   0.0000000   0.0000000
   16   0.0000000   0.0000000  -0.0000000  -0.0000000  -0.0000000  -0.0000000
   17   0.0000000   0.0000000  -0.0000000  -0.0000000  -0.0000000  -0.0000000
   18   0.0000000  -0.0000000  -0.0000000  -0.0000000  -0.0000000  -0.0000000
   19   0.0000000   0.0000000  -0.0000000  -0.0000000   0.0000000  -0.0000000
   20   0.0000000  -0.0000000  -0.0000000  -0.0000000  -0.0000000  -0.0000000
   21  -0.0000000  -0.0000000  -0.0000000   0.0000000   0.0000000   0.0000000
   22   0.0000000   0.0000000   0.0000000  -0.0000000  -0.0000000   0.0000000
   23   0.0000000   0.0000000   0.0000000  -0.0000000   0.0000000  -0.0000000
   24  -0.0000000  -0.0000000  -0.0000000   0.0000000  -0.0000000  -0.0000000
   25  -0.0000000   0.0000000   0.0000000  -0.0000000   0.0000000   0.0000000
   26  -0.0000000   0.0000000   0.0000000  -0.0000000   0.0000000   0.0000000
   27  -0.0000000  -0.0000000   0.0000000   0.0000000  -0.0000000   0.0000000
   28  -0.0000000   0.0000000   0.0000000   0.0000000   0.0000000   0.0000000
   29  -0.0000000  -0.0000000   0.0000000   0.0000000  -0.0000000   0.0000000
   30   0.0000000  -0.0000000  -0.0000000  -0.0000000  -0.0000000  -0.0000000
   31   0.0000000   0.0000000   0.0000000  -0.0000000   0.0000000  -0.0000000
   32   0.0000000   0.0000000   0.0000000   0.0000000  -0.0000000  -0.0000000
   33   0.0000000   0.0000000   0.0000000   0.0000000   0.0000000   0.0000000
   34  -0.0000000  -0.0000000   0.0000000   0.0000000   0.0000000   0.0000000
   35   0.0000000  -0.0000000  -0.0000000   0.0000000   0.0000000  -0.0000000
   36   0.0000000  -0.0000000   0.0000000   0.0000000   0.0000000   0.0000000
   37   0.0000000  -0.0000000  -0.0000000  -0.0000000  -0.0000000  -0.0000000
   38   0.0000000  -0.0000000  -0.0000000  -0.0000000  -0.0000000  -0.0000000
   39  -0.0002372  -0.0002894   0.0008160  -0.0001263   0.0006610  -0.0024846
   40  -0.0002137  -0.0002047   0.0001182  -0.0001498   0.0007137  -0.0027466
   41   0.0003327   0.0000375   0.0030380   0.0003876  -0.0015358   0.0062348
   42   0.0003011   0.0005862   0.0005284   0.0002448  -0.0007761   0.0035233
   43  -0.0190715   0.0039619   0.0004980  -0.0013993  -0.0003200   0.0016342
   44   0.0048199   0.0791682   0.0178250  -0.0007500   0.0094660   0.0042367
   45   0.0026197   0.0189611  -0.0183707  -0.0007168   0.0033998  -0.0061211
   46  -0.0074112   0.0014423  -0.0000926  -0.0004424  -0.0000765   0.0004125
   47   0.0018377   0.0255148   0.0050188  -0.0002460   0.0031199   0.0010691
   48   0.0000820   0.0054006  -0.0020788  -0.0001747   0.0006375  -0.0003552
   49   0.0005055   0.0001916   0.0001334   0.0000264   0.0000394  -0.0000043
   50   0.0000228  -0.0030633  -0.0005522   0.0000439  -0.0003397  -0.0002101
   51  -0.0004458  -0.0010429   0.0002871  -0.0000025  -0.0002135   0.0002519
   52  -0.0026459   0.0000159  -0.0003110  -0.0001482  -0.0000752   0.0000598
   53   0.0003017  -0.0004366  -0.0005971   0.0000187  -0.0000599  -0.0000313
   54  -0.0000521  -0.0002200   0.0014198   0.0002420   0.0004084  -0.0001969
   55  -0.0001039  -0.0003735   0.0023309   0.0003048   0.0005860  -0.0004543
   56   0.0004958   0.0014716  -0.0089495  -0.0008737  -0.0019180   0.0019797
   57   0.0007236   0.0016869  -0.0088687  -0.0007300  -0.0010427   0.0000722
   58   0.0556499   0.0016383   0.0022875   0.0023255   0.0019045  -0.0022941
   59   0.0012497   0.0813665   0.0086487  -0.0013121   0.0099185   0.0014969
   60   0.0013441   0.0084809   0.0319784   0.0013794   0.0003899   0.0102784
   61   0.0119733   0.0007768   0.0006924   0.0005395   0.0004567  -0.0004276
   62   0.0007768   0.0258285   0.0037662  -0.0003551   0.0031134   0.0008608
   63   0.0006924   0.0037662   0.0044871   0.0001633   0.0005229   0.0009934
   64   0.0005395  -0.0003551   0.0001633   0.0000419  -0.0000206   0.0000085
   65   0.0004567   0.0031134   0.0005229  -0.0000206   0.0004151   0.0000309
   66  -0.0004276   0.0008608   0.0009934   0.0000085   0.0000309   0.0004513
   67  -0.0034648   0.0003132  -0.0004259  -0.0001830  -0.0000633   0.0000504
   68   0.0004419   0.0007444  -0.0010794  -0.0000632   0.0000525  -0.0002264
   69  -0.0111304   0.0013507  -0.0058548  -0.0007911  -0.0004785   0.0007913
   70  -0.0088264   0.0009772  -0.0044978  -0.0006433  -0.0001608  -0.0002275
   71   0.0127884   0.0001142  -0.0038645   0.0007922   0.0002139  -0.0002885
   72   0.0095300   0.0004129  -0.0025666   0.0005194   0.0004058  -0.0009567
   73  -0.0258461   0.0034370  -0.0128374  -0.0019052  -0.0009057  -0.0011315
   74  -0.0172080   0.0019619  -0.0076814  -0.0011744  -0.0003800  -0.0010507
   75   0.0277992   0.0003431  -0.0090850   0.0005670   0.0003325  -0.0028177
   76   0.0183309   0.0003252  -0.0049012   0.0004879   0.0004926  -0.0021186
           67          68          69          70          71          72
    1   0.0000000   0.0000000   0.0000000  -0.0000000   0.0000000  -0.0000000
    2   0.0000000   0.0000000  -0.0000000  -0.0000000   0.0000000  -0.0000000
    3   0.0000000   0.0000000   0.0000000  -0.0000000   0.0000000  -0.0000000
    4   0.0000000  -0.0000000  -0.0000000  -0.0000000  -0.0000000  -0.0000000
    5  -0.0000000  -0.0000000  -0.0000000   0.0000000  -0.0000000   0.0000000
    6   0.0000000   0.0000000   0.0000000   0.0000000  -0.0000000   0.0000000
    7  -0.0000000   0.0000000  -0.0000000  -0.0000000   0.0000000  -0.0000000
    8   0.0000000   0.0000000   0.0000000   0.0000000  -0.0000000  -0.0000000
    9  -0.0000000  -0.0000000  -0.0000000   0.0000000   0.0000000   0.0000000
   10   0.0000000   0.0000000  -0.0000000  -0.0000000  -0.0000000  -0.0000000
   11  -0.0000000  -0.0000000  -0.0000000   0.0000000   0.0000000   0.0000000
   12   0.0000000   0.0000000   0.0000000   0.0000000   0.0000000   0.0000000
   13  -0.0000000  -0.0000000  -0.0000000   0.0000000  -0.0000000   0.0000000
   14  -0.0000000  -0.0000000   0.0000000  -0.0000000   0.0000000   0.0000000
   15   0.0000000   0.0000000   0.0000000  -0.0000000   0.0000000  -0.0000000
   16  -0.0000000  -0.0000000   0.0000000   0.0000000  -0.0000000  -0.0000000
   17   0.0000000  -0.0000000   0.0000000   0.0000000  -0.0000000  -0.0000000
   18  -0.0000000  -0.0000000  -0.0000000   0.0000000  -0.0000000   0.0000000
   19   0.0000000  -0.0000000   0.0000000   0.0000000  -0.0000000   0.0000000
   20  -0.0000000  -0.0000000  -0.0000000   0.0000000   0.0000000   0.0000000
   21   0.0000000   0.0000000  -0.0000000   0.0000000  -0.0000000   0.0000000
   22  -0.0000000  -0.0000000   0.0000000   0.0000000   0.0000000  -0.0000000
   23  -0.0000000  -0.0000000  -0.0000000   0.0000000   0.0000000   0.0000000
   24   0.0000000   0.0000000   0.0000000   0.0000000  -0.0000000  -0.0000000
   25  -0.0000000  -0.0000000  -0.0000000  -0.0000000   0.0000000   0.0000000
   26   0.0000000   0.0000000   0.0000000  -0.0000000   0.0000000  -0.0000000
   27  -0.0000000   0.0000000  -0.0000000  -0.0000000   0.0000000   0.0000000
   28   0.0000000   0.0000000   0.0000000  -0.0000000   0.0000000  -0.0000000
   29  -0.0000000  -0.0000000  -0.0000000  -0.0000000  -0.0000000   0.0000000
   30  -0.0000000  -0.0000000  -0.0000000   0.0000000   0.0000000   0.0000000
   31   0.0000000  -0.0000000   0.0000000  -0.0000000  -0.0000000  -0.0000000
   32  -0.0000000  -0.0000000  -0.0000000  -0.0000000   0.0000000  -0.0000000
   33   0.0000000   0.0000000   0.0000000  -0.0000000   0.0000000  -0.0000000
   34   0.0000000   0.0000000   0.0000000   0.0000000  -0.0000000  -0.0000000
   35   0.0000000   0.0000000  -0.0000000   0.0000000  -0.0000000   0.0000000
   36  -0.0000000  -0.0000000  -0.0000000  -0.0000000   0.0000000   0.0000000
   37  -0.0000000  -0.0000000  -0.0000000   0.0000000  -0.0000000   0.0000000
   38  -0.0000000  -0.0000000  -0.0000000   0.0000000  -0.0000000   0.0000000
   39   0.0003905   0.0005444  -0.0199336  -0.0045980  -0.0207746  -0.0043338
   40   0.0004403   0.0006840  -0.0248015  -0.0065612  -0.0258252  -0.0062719
   41  -0.0010471  -0.0019259   0.0695920   0.0219477   0.0724933   0.0213549
   42  -0.0005234  -0.0014178   0.0555334   0.0208761   0.0551824   0.0184747
   43   0.0080103  -0.0008615   0.1303068   0.0877647  -0.1425627  -0.0918322
   44  -0.0004036   0.0013222  -0.0229867  -0.0155263  -0.0082919  -0.0034537
   45   0.0017263   0.0026752   0.0881597   0.0589136   0.0715660   0.0433636
   46   0.0025965  -0.0002692   0.0261096   0.0181332  -0.0283474  -0.0186415
   47  -0.0001208   0.0004641  -0.0039602  -0.0026046  -0.0004357   0.0003726
   48   0.0003307   0.0006595   0.0130218   0.0078087   0.0091295   0.0046354
   49  -0.0001725   0.0000201  -0.0020576  -0.0013637   0.0012129   0.0008899
   50  -0.0000588  -0.0000656  -0.0009978  -0.0004001   0.0000047   0.0002470
   51   0.0000619  -0.0000164  -0.0006772  -0.0007537  -0.0025485  -0.0019338
   52   0.0008970  -0.0000845   0.0082822   0.0057980  -0.0075345  -0.0050597
   53  -0.0000783  -0.0000007   0.0039570   0.0018328   0.0054578   0.0026193
   54  -0.0000560  -0.0019164   0.0033661   0.0044744   0.0033832   0.0042540
   55  -0.0000409  -0.0024518   0.0044419   0.0054013   0.0044573   0.0050911
   56   0.0000112   0.0071668  -0.0133798  -0.0142300  -0.0132680  -0.0131511
   57   0.0002081   0.0057468  -0.0104844  -0.0081501  -0.0095481  -0.0069773
   58  -0.0151575   0.0021084  -0.0113397  -0.0134746   0.0139832   0.0167865
   59   0.0015902   0.0031821   0.0033117   0.0048666   0.0018462   0.0040656
   60  -0.0029113  -0.0085885  -0.0190885  -0.0273925  -0.0172645  -0.0227070
   61  -0.0034648   0.0004419  -0.0111304  -0.0088264   0.0127884   0.0095300
   62   0.0003132   0.0007444   0.0013507   0.0009772   0.0001142   0.0004129
   63  -0.0004259  -0.0010794  -0.0058548  -0.0044978  -0.0038645  -0.0025666
   64  -0.0001830  -0.0000632  -0.0007911  -0.0006433   0.0007922   0.0005194
   65  -0.0000633   0.0000525  -0.0004785  -0.0001608   0.0002139   0.0004058
   66   0.0000504  -0.0002264   0.0007913  -0.0002275  -0.0002885  -0.0009567
   67   0.0010643  -0.0000294   0.0046334   0.0036158  -0.0046347  -0.0032345
   68  -0.0000294   0.0005391  -0.0003923  -0.0000280   0.0004414   0.0005607
   69   0.0046334  -0.0003923   0.1100470   0.0659722  -0.0182363  -0.0216324
   70   0.0036158  -0.0000280   0.0659722   0.0422119  -0.0213393  -0.0174157
   71  -0.0046347   0.0004414  -0.0182363  -0.0213393   0.1110708   0.0625081
   72  -0.0032345   0.0005607  -0.0216324  -0.0174157   0.0625081   0.0378282
   73   0.0081330   0.0042089   0.0139020   0.0145335  -0.0126777  -0.0096876
   74   0.0054751   0.0019402   0.0146019   0.0138573  -0.0091327  -0.0063023
   75  -0.0070708   0.0055241  -0.0128932  -0.0099698   0.0136848   0.0136586
   76  -0.0047309   0.0028011  -0.0097768  -0.0066947   0.0134282   0.0124243
           73          74          75          76
    1  -0.0000000   0.0000000  -0.0000000  -0.0000000
    2  -0.0000000   0.0000000  -0.0000000  -0.0000000
    3   0.0000000   0.0000000   0.0000000  -0.0000000
    4  -0.0000000   0.0000000  -0.0000000  -0.0000000
    5  -0.0000000   0.0000000   0.0000000   0.0000000
    6  -0.0000000   0.0000000   0.0000000   0.0000000
    7   0.0000000  -0.0000000  -0.0000000  -0.0000000
    8   0.0000000   0.0000000   0.0000000  -0.0000000
    9  -0.0000000  -0.0000000  -0.0000000   0.0000000
   10   0.0000000   0.0000000   0.0000000  -0.0000000
   11  -0.0000000  -0.0000000  -0.0000000   0.0000000
   12   0.0000000  -0.0000000   0.0000000   0.0000000
   13  -0.0000000  -0.0000000  -0.0000000   0.0000000
   14   0.0000000  -0.0000000   0.0000000  -0.0000000
   15   0.0000000  -0.0000000  -0.0000000  -0.0000000
   16  -0.0000000   0.0000000   0.0000000  -0.0000000
   17  -0.0000000   0.0000000   0.0000000  -0.0000000
   18  -0.0000000   0.0000000   0.0000000   0.0000000
   19   0.0000000   0.0000000  -0.0000000   0.0000000
   20   0.0000000   0.0000000  -0.0000000  -0.0000000
   21   0.0000000  -0.0000000   0.0000000   0.0000000
   22  -0.0000000   0.0000000   0.0000000   0.0000000
   23  -0.0000000  -0.0000000  -0.0000000  -0.0000000
   24   0.0000000   0.0000000   0.0000000   0.0000000
   25  -0.0000000  -0.0000000   0.0000000   0.0000000
   26   0.0000000  -0.0000000   0.0000000  -0.0000000
   27   0.0000000  -0.0000000   0.0000000  -0.0000000
   28   0.0000000  -0.0000000   0.0000000   0.0000000
   29  -0.0000000  -0.0000000  -0.0000000   0.0000000
   30  -0.0000000   0.0000000  -0.0000000   0.0000000
   31   0.0000000   0.0000000   0.0000000  -0.0000000
   32  -0.0000000  -0.0000000  -0.0000000  -0.0000000
   33  -0.0000000  -0.0000000  -0.0000000  -0.0000000
   34   0.0000000   0.0000000   0.0000000  -0.0000000
   35  -0.0000000   0.0000000  -0.0000000   0.0000000
   36  -0.0000000  -0.0000000  -0.0000000   0.0000000
   37  -0.0000000   0.0000000  -0.0000000  -0.0000000
   38   0.0000000   0.0000000   0.0000000   0.0000000
   39   0.0034515   0.0045031   0.0033981   0.0045735
   40   0.0045460   0.0054415   0.0044776   0.0055141
   41  -0.0137309  -0.0143874  -0.0134159  -0.0144680
   42  -0.0108625  -0.0081098  -0.0110183  -0.0087441
   43   0.0107415   0.0127443  -0.0136540  -0.0163171
   44  -0.0040548  -0.0063455  -0.0025408  -0.0028293
   45   0.0182649   0.0276571   0.0167586   0.0237816
   46   0.0110896   0.0084367  -0.0121558  -0.0091274
   47  -0.0018159  -0.0015458  -0.0000805   0.0002336
   48   0.0060152   0.0045652   0.0042013   0.0030180
   49  -0.0008357  -0.0006664   0.0008448   0.0005858
   50  -0.0004569  -0.0001113   0.0002109   0.0003116
   51   0.0009409  -0.0001610  -0.0001768  -0.0009208
   52   0.0045669   0.0034631  -0.0046786  -0.0032631
   53  -0.0003726   0.0000322   0.0004370   0.0005322
   54  -0.0204577  -0.0046492  -0.0205764  -0.0048584
   55  -0.0254454  -0.0066177  -0.0255990  -0.0068896
   56   0.0714185   0.0221221   0.0719687   0.0229804
   57   0.0559077   0.0204285   0.0564570   0.0210200
   58  -0.1300856  -0.0839155   0.1422080   0.0916212
   59   0.0224629   0.0143474   0.0045606   0.0039117
   60  -0.0884137  -0.0592341  -0.0699296  -0.0454246
   61  -0.0258461  -0.0172080   0.0277992   0.0183309
   62   0.0034370   0.0019619   0.0003431   0.0003252
   63  -0.0128374  -0.0076814  -0.0090850  -0.0049012
   64  -0.0019052  -0.0011744   0.0005670   0.0004879
   65  -0.0009057  -0.0003800   0.0003325   0.0004926
   66  -0.0011315  -0.0010507  -0.0028177  -0.0021186
   67   0.0081330   0.0054751  -0.0070708  -0.0047309
   68   0.0042089   0.0019402   0.0055241   0.0028011
   69   0.0139020   0.0146019  -0.0128932  -0.0097768
   70   0.0145335   0.0138573  -0.0099698  -0.0066947
   71  -0.0126777  -0.0091327   0.0136848   0.0134282
   72  -0.0096876  -0.0063023   0.0136586   0.0124243
   73   0.1101953   0.0638990  -0.0184766  -0.0200845
   74   0.0638990   0.0396700  -0.0200315  -0.0155200
   75  -0.0184766  -0.0200315   0.1101519   0.0633745
   76  -0.0200845  -0.0155200   0.0633745   0.0388346
 
 --------------------------------------------------------------
 
                    Orbital Energies (a.u.)
 --------------------------------------------------------------
 
 Alpha MOs
 -- Occupied --
-10.329 -10.326 -10.325 -10.324  -1.072  -1.068  -0.890  -0.885
 -0.771  -0.770  -0.707  -0.703  -0.657  -0.651  -0.546  -0.541
 -- Virtual --
 -0.057  -0.050   0.106   0.107   0.111   0.113   0.154   0.162
  0.215   0.216   0.235   0.239   0.266   0.272   0.286   0.286
  0.287   0.289   0.377   0.380   0.495   0.498   0.503   0.505
  0.521   0.553   0.862   0.865   0.928   0.934   0.941   0.949
  1.039   1.046   1.310   1.313   1.332   1.342   1.386   1.395
  1.669   1.682   1.736   1.752   1.841   1.860   1.920   1.923
  2.182   2.206   2.214   2.218   2.400   2.432   2.530   2.549
 22.404  22.413  22.765  22.799
 --------------------------------------------------------------
 
          Ground-State Mulliken Net Atomic Charges

     Atom                 Charge (a.u.)
  ----------------------------------------
      1 C                    -0.371171
      2 C                    -0.402459
      3 H                     0.194091
      4 H                     0.176036
      5 H                     0.206158
      6 H                     0.197344
      7 C                    -0.375891
      8 C                    -0.378023
      9 H                     0.181049
     10 H                     0.193686
     11 H                     0.188833
     12 H                     0.190347
  ----------------------------------------
  Sum of atomic charges =    -0.000000

 -----------------------------------------------------------------
                    Cartesian Multipole Moments
 -----------------------------------------------------------------
    Charge (ESU x 10^10)
                -0.0000
    Dipole Moment (Debye)
         X      -0.0101      Y      -0.0642      Z      -0.0201
       Tot       0.0680
    Quadrupole Moments (Debye-Ang)
        XX     -22.8810     XY      -2.8722     YY     -27.8211
        XZ      -1.7713     YZ      -3.7816     ZZ     -25.0303
    Octopole Moments (Debye-Ang^2)
       XXX   -2227.9053    XXY    -225.2069    XYY    -903.0260
       YYY    -364.9760    XXZ    -572.4679    XYZ    -150.5452
       YYZ    -609.5463    XZZ    -874.9297    YZZ    -230.8733
       ZZZ   -1555.5548
    Hexadecapole Moments (Debye-Ang^3)
      XXXX -153770.1972   XXXY  -14681.3534   XXYY  -31394.7151
      XYYY  -11028.9055   YYYY   -3525.7373   XXXZ  -50899.3454
      XXYZ   -8225.0323   XYYZ  -19522.9307   YYYZ   -8006.8457
      XXZZ  -42173.1934   XYZZ   -8121.1311   YYZZ  -13884.9432
      XZZZ  -52256.7351   YZZZ  -10291.5293   ZZZZ  -65575.4627
 -----------------------------------------------------------------

-----------------------------------------------------------------
 Calculate fragment orbital coupling using Fock matrix
-----------------------------------------------------------------

 == Donor ==
 Use 2 occupied orbitals and 2 virtual orbitals
 HOMO = 8, LUMO = 9
 == Acceptor ==
 Use 2 occupied orbitals and 2 virtual orbitals
 HOMO = 8, LUMO = 9

 !! Omitting coupling values smaller than 1.0E-14

 -- Couplings (in eV) of Alpha Orbitals (donor,acceptor) --

-----------------------------------------------------------------

 No wavefunction analysis requested
Archival summary:
1\1\q72\SP\ProcedureUnspecified\BasisUnspecified\48\junyiwan\ThuJun300:28:252021ThuJun300:28:252021\0\\#,ProcedureUnspecified,BasisUnspecified,\\0,1\C\H,1,1.08774\H,1,1.08813,2,120.871\C,1,1.33603,2,119.216,3,-179.424,0\H,4,1.07449,1,122.333,2,2.06949,0\H,4,1.09893,1,120.883,2,179.809,0\H,3,13.1182,1,155.009,2,-155.122,0\C,7,1.11071,3,170.697,1,-165.791,0\H,8,1.07799,7,118.009,3,-178.091,0\C,8,1.36469,7,119.435,3,-1.85438,0\H,10,1.05737,8,120.51,7,1.08994,0\H,10,1.06817,8,118.453,7,-179.458,0\\\@

 Total job time:  5.65s(wall), 1.41s(cpu) 
 Thu Jun  3 00:28:25 2021

        *************************************************************
        *                                                           *
        *  Thank you very much for using Q-Chem.  Have a nice day.  *
        *                                                           *
        *************************************************************


